created by fftool

600 atoms
500 bonds
700 angles
300 dihedrals
6 atom types
5 bond types
7 angle types
3 dihedral types
0.000000 18.870000 xlo xhi
0.000000 18.870000 ylo yhi
0.000000 18.870000 zlo zhi

Masses

   1    1.008  # H00
   2   12.011  # C01
   3    1.008  # H02
   4    1.008  # H03
   5   15.999  # O04
   6    1.008  # H05

Bond Coeffs

   1   339.997610     1.090000  # C01-H00
   2   339.997610     1.090000  # H02-C01
   3   339.997610     1.090000  # H03-C01
   4   320.004780     1.410000  # O04-C01
   5   552.999522     0.945000  # H05-O04

Angle Coeffs

   1    32.994742   107.800000  # H00-C01-H02
   2    32.994742   107.800000  # H00-C01-H03
   3    35.002390   109.500000  # H00-C01-O04
   4    32.994742   107.800000  # H02-C01-H03
   5    35.002390   109.500000  # H02-C01-O04
   6    35.002390   109.500000  # H03-C01-O04
   7    54.995220   108.500000  # C01-O04-H05

Dihedral Coeffs

   1     0.527964     0.000000     0.704111     0.000000  # H05-O04-C01-H00
   2     0.527964     0.000000     0.704111     0.000000  # H05-O04-C01-H02
   3     0.527964     0.000000     0.704111     0.000000  # H05-O04-C01-H03

Atoms

      1       1    1   0.0755  3.457624e+00  1.173695e+01  1.733158e+01  # H00 probe1
      2       1    2  -0.0513  2.706420e+00  1.212256e+01  1.663600e+01  # C01 probe1
      3       1    3   0.0755  1.958606e+00  1.270126e+01  1.719193e+01  # H02 probe1
      4       1    4   0.0755  3.191402e+00  1.277648e+01  1.590068e+01  # H03 probe1
      5       1    5  -0.5765  2.158494e+00  1.098255e+01  1.604843e+01  # O04 probe1
      6       1    6   0.4013  1.497744e+00  1.127031e+01  1.543212e+01  # H05 probe1
      7       2    1   0.0755  1.702861e+01  1.398352e+01  9.113596e+00  # H00 probe1
      8       2    2  -0.0513  1.684851e+01  1.467259e+01  9.944007e+00  # C01 probe1
      9       2    3   0.0755  1.577382e+01  1.470852e+01  1.016066e+01  # H02 probe1
     10       2    4   0.0755  1.738194e+01  1.431812e+01  1.083469e+01  # H03 probe1
     11       2    5  -0.5765  1.733464e+01  1.589861e+01  9.490546e+00  # O04 probe1
     12       2    6   0.4013  1.719960e+01  1.653158e+01  1.018362e+01  # H05 probe1
     13       3    1   0.0755  1.737340e+01  1.035952e+01  6.333115e+00  # H00 probe1
     14       3    2  -0.0513  1.675858e+01  1.020250e+01  7.224281e+00  # C01 probe1
     15       3    3   0.0755  1.573777e+01  1.055300e+01  7.028623e+00  # H02 probe1
     16       3    4   0.0755  1.673019e+01  9.132390e+00  7.464220e+00  # H03 probe1
     17       3    5  -0.5765  1.738952e+01  1.094990e+01  8.218465e+00  # O04 probe1
     18       3    6   0.4013  1.688811e+01  1.084216e+01  9.016099e+00  # H05 probe1
     19       4    1   0.0755  1.192573e+01  1.737091e+01  1.529130e+01  # H00 probe1
     20       4    2  -0.0513  1.198643e+01  1.680782e+01  1.622729e+01  # C01 probe1
     21       4    3   0.0755  1.136281e+01  1.729548e+01  1.698655e+01  # H02 probe1
     22       4    4   0.0755  1.161924e+01  1.578708e+01  1.606364e+01  # H03 probe1
     23       4    5  -0.5765  1.333997e+01  1.683459e+01  1.656237e+01  # O04 probe1
     24       4    6   0.4013  1.344136e+01  1.635371e+01  1.737336e+01  # H05 probe1
     25       5    1   0.0755  1.213814e+01  6.813089e+00  1.187459e+01  # H00 probe1
     26       5    2  -0.0513  1.217044e+01  7.774111e+00  1.239635e+01  # C01 probe1
     27       5    3   0.0755  1.245747e+01  8.562462e+00  1.168974e+01  # H02 probe1
     28       5    4   0.0755  1.117753e+01  8.001963e+00  1.280345e+01  # H03 probe1
     29       5    5  -0.5765  1.312337e+01  7.594078e+00  1.339864e+01  # O04 probe1
     30       5    6   0.4013  1.318491e+01  8.407884e+00  1.388152e+01  # H05 probe1
     31       6    1   0.0755  1.271258e+01  1.258910e+01  7.640653e+00  # H00 probe1
     32       6    2  -0.0513  1.173709e+01  1.212602e+01  7.816210e+00  # C01 probe1
     33       6    3   0.0755  1.132835e+01  1.248782e+01  8.767640e+00  # H02 probe1
     34       6    4   0.0755  1.105170e+01  1.239981e+01  7.004549e+00  # H03 probe1
     35       6    5  -0.5765  1.200178e+01  1.075700e+01  7.844446e+00  # O04 probe1
     36       6    6   0.4013  1.117817e+01  1.031151e+01  7.994278e+00  # H05 probe1
     37       7    1   0.0755  1.675003e+00  1.299145e+01  2.040410e+00  # H00 probe1
     38       7    2  -0.0513  1.963447e+00  1.255954e+01  3.003268e+00  # C01 probe1
     39       7    3   0.0755  1.494282e+00  1.157442e+01  3.115503e+00  # H02 probe1
     40       7    4   0.0755  3.053732e+00  1.244337e+01  3.039252e+00  # H03 probe1
     41       7    5  -0.5765  1.498497e+00  1.347396e+01  3.948124e+00  # O04 probe1
     42       7    6   0.4013  1.728866e+00  1.313903e+01  4.804857e+00  # H05 probe1
     43       8    1   0.0755  5.564487e+00  1.199032e+01  1.600738e+01  # H00 probe1
     44       8    2  -0.0513  6.125164e+00  1.292213e+01  1.612654e+01  # C01 probe1
     45       8    3   0.0755  5.485058e+00  1.376969e+01  1.585249e+01  # H02 probe1
     46       8    4   0.0755  6.434601e+00  1.303060e+01  1.717343e+01  # H03 probe1
     47       8    5  -0.5765  7.213902e+00  1.278569e+01  1.526565e+01  # O04 probe1
     48       8    6   0.4013  7.733070e+00  1.357603e+01  1.533684e+01  # H05 probe1
     49       9    1   0.0755  1.050699e+01  1.569773e+01  1.192581e+01  # H00 probe1
     50       9    2  -0.0513  1.017526e+01  1.647137e+01  1.122704e+01  # C01 probe1
     51       9    3   0.0755  1.080301e+01  1.736294e+01  1.134625e+01  # H02 probe1
     52       9    4   0.0755  1.027137e+01  1.610030e+01  1.019914e+01  # H03 probe1
     53       9    5  -0.5765  8.847516e+00  1.671235e+01  1.157934e+01  # O04 probe1
     54       9    6   0.4013  8.515421e+00  1.738105e+01  1.099470e+01  # H05 probe1
     55      10    1   0.0755  6.123879e+00  1.435971e+01  1.565819e+00  # H00 probe1
     56      10    2  -0.0513  6.518599e+00  1.352749e+01  2.156108e+00  # C01 probe1
     57      10    3   0.0755  6.834065e+00  1.272105e+01  1.482814e+00  # H02 probe1
     58      10    4   0.0755  7.384814e+00  1.386971e+01  2.735824e+00  # H03 probe1
     59      10    5  -0.5765  5.454764e+00  1.314462e+01  2.972661e+00  # O04 probe1
     60      10    6   0.4013  5.753395e+00  1.242065e+01  3.507380e+00  # H05 probe1
     61      11    1   0.0755  1.083669e+01  3.029170e+00  5.451284e+00  # H00 probe1
     62      11    2  -0.0513  1.119004e+01  2.064430e+00  5.075444e+00  # C01 probe1
     63      11    3   0.0755  1.163684e+01  1.494386e+00  5.899215e+00  # H02 probe1
     64      11    4   0.0755  1.034306e+01  1.499505e+00  4.666796e+00  # H03 probe1
     65      11    5  -0.5765  1.212638e+01  2.394358e+00  4.095903e+00  # O04 probe1
     66      11    6   0.4013  1.246149e+01  1.582491e+00  3.738394e+00  # H05 probe1
     67      12    1   0.0755  5.096349e+00  1.026877e+01  1.285631e+01  # H00 probe1
     68      12    2  -0.0513  6.093592e+00  9.820557e+00  1.281831e+01  # C01 probe1
     69      12    3   0.0755  6.030184e+00  8.766011e+00  1.311342e+01  # H02 probe1
     70      12    4   0.0755  6.483232e+00  9.883380e+00  1.179471e+01  # H03 probe1
     71      12    5  -0.5765  6.848109e+00  1.057365e+01  1.371755e+01  # O04 probe1
     72      12    6   0.4013  7.727600e+00  1.021906e+01  1.371706e+01  # H05 probe1
     73      13    1   0.0755  4.858786e+00  1.743797e+00  4.273981e+00  # H00 probe1
     74      13    2  -0.0513  5.567890e+00  1.987078e+00  3.477224e+00  # C01 probe1
     75      13    3   0.0755  5.249473e+00  1.502532e+00  2.546091e+00  # H02 probe1
     76      13    4   0.0755  5.589122e+00  3.073542e+00  3.326692e+00  # H03 probe1
     77      13    5  -0.5765  6.789149e+00  1.493654e+00  3.935642e+00  # O04 probe1
     78      13    6   0.4013  7.439522e+00  1.684421e+00  3.272421e+00  # H05 probe1
     79      14    1   0.0755  6.726306e+00  1.524289e+01  9.725437e+00  # H00 probe1
     80      14    2  -0.0513  7.612480e+00  1.507502e+01  9.106284e+00  # C01 probe1
     81      14    3   0.0755  7.308015e+00  1.464659e+01  8.143510e+00  # H02 probe1
     82      14    4   0.0755  8.120010e+00  1.603123e+01  8.928512e+00  # H03 probe1
     83      14    5  -0.5765  8.394894e+00  1.419241e+01  9.850538e+00  # O04 probe1
     84      14    6   0.4013  9.180777e+00  1.401773e+01  9.349428e+00  # H05 probe1
     85      15    1   0.0755  1.665608e+01  6.127311e+00  6.413184e+00  # H00 probe1
     86      15    2  -0.0513  1.584903e+01  6.532288e+00  5.795522e+00  # C01 probe1
     87      15    3   0.0755  1.602699e+01  7.600057e+00  5.618373e+00  # H02 probe1
     88      15    4   0.0755  1.582835e+01  6.007820e+00  4.832183e+00  # H03 probe1
     89      15    5  -0.5765  1.469305e+01  6.308951e+00  6.543131e+00  # O04 probe1
     90      15    6   0.4013  1.396151e+01  6.645642e+00  6.042412e+00  # H05 probe1
     91      16    1   0.0755  7.321802e+00  1.596967e+01  1.593151e+01  # H00 probe1
     92      16    2  -0.0513  6.728507e+00  1.635644e+01  1.676533e+01  # C01 probe1
     93      16    3   0.0755  6.390280e+00  1.552059e+01  1.738995e+01  # H02 probe1
     94      16    4   0.0755  7.346812e+00  1.702973e+01  1.737186e+01  # H03 probe1
     95      16    5  -0.5765  5.664708e+00  1.702172e+01  1.615639e+01  # O04 probe1
     96      16    6   0.4013  5.119813e+00  1.737727e+01  1.684625e+01  # H05 probe1
     97      17    1   0.0755  1.095227e+01  3.329986e+00  1.353871e+01  # H00 probe1
     98      17    2  -0.0513  1.143335e+01  2.880067e+00  1.441219e+01  # C01 probe1
     99      17    3   0.0755  1.206802e+01  2.045902e+00  1.408886e+01  # H02 probe1
    100      17    4   0.0755  1.205654e+01  3.631263e+00  1.491304e+01  # H03 probe1
    101      17    5  -0.5765  1.037347e+01  2.454653e+00  1.521267e+01  # O04 probe1
    102      17    6   0.4013  1.074564e+01  2.055902e+00  1.598838e+01  # H05 probe1
    103      18    1   0.0755  1.561750e+01  1.513285e+01  1.722208e+01  # H00 probe1
    104      18    2  -0.0513  1.650198e+01  1.554541e+01  1.672779e+01  # C01 probe1
    105      18    3   0.0755  1.634568e+01  1.661370e+01  1.653414e+01  # H02 probe1
    106      18    4   0.0755  1.737514e+01  1.542358e+01  1.738068e+01  # H03 probe1
    107      18    5  -0.5765  1.661726e+01  1.480886e+01  1.554910e+01  # O04 probe1
    108      18    6   0.4013  1.737749e+01  1.513355e+01  1.508449e+01  # H05 probe1
    109      19    1   0.0755  1.505799e+01  3.766269e+00  1.462960e+01  # H00 probe1
    110      19    2  -0.0513  1.458922e+01  4.628637e+00  1.414647e+01  # C01 probe1
    111      19    3   0.0755  1.400962e+01  5.191148e+00  1.488865e+01  # H02 probe1
    112      19    4   0.0755  1.536671e+01  5.280843e+00  1.372975e+01  # H03 probe1
    113      19    5  -0.5765  1.377834e+01  4.074565e+00  1.315623e+01  # O04 probe1
    114      19    6   0.4013  1.334929e+01  4.790886e+00  1.270675e+01  # H05 probe1
    115      20    1   0.0755  1.061956e+01  2.084011e+00  2.121886e+00  # H00 probe1
    116      20    2  -0.0513  1.011052e+01  3.052138e+00  2.100969e+00  # C01 probe1
    117      20    3   0.0755  1.002378e+01  3.439946e+00  3.123351e+00  # H02 probe1
    118      20    4   0.0755  1.069445e+01  3.758603e+00  1.498104e+00  # H03 probe1
    119      20    5  -0.5765  8.865512e+00  2.778529e+00  1.535122e+00  # O04 probe1
    120      20    6   0.4013  8.385774e+00  3.595551e+00  1.495570e+00  # H05 probe1
    121      21    1   0.0755  3.147646e+00  1.311470e+01  9.942500e+00  # H00 probe1
    122      21    2  -0.0513  2.146192e+00  1.274964e+01  9.696219e+00  # C01 probe1
    123      21    3   0.0755  1.743526e+00  1.218853e+01  1.054839e+01  # H02 probe1
    124      21    4   0.0755  1.488543e+00  1.360206e+01  9.485521e+00  # H03 probe1
    125      21    5  -0.5765  2.336453e+00  1.194023e+01  8.576513e+00  # O04 probe1
    126      21    6   0.4013  1.487968e+00  1.159982e+01  8.324643e+00  # H05 probe1
    127      22    1   0.0755  1.523961e+00  9.356095e+00  1.367766e+01  # H00 probe1
    128      22    2  -0.0513  1.874160e+00  8.361761e+00  1.338526e+01  # C01 probe1
    129      22    3   0.0755  1.508562e+00  7.620463e+00  1.410637e+01  # H02 probe1
    130      22    4   0.0755  1.484498e+00  8.115696e+00  1.238970e+01  # H03 probe1
    131      22    5  -0.5765  3.264931e+00  8.465224e+00  1.339709e+01  # O04 probe1
    132      22    6   0.4013  3.614743e+00  7.620133e+00  1.314671e+01  # H05 probe1
    133      23    1   0.0755  1.029537e+01  6.071140e+00  8.778116e+00  # H00 probe1
    134      23    2  -0.0513  1.102116e+01  6.153042e+00  7.963649e+00  # C01 probe1
    135      23    3   0.0755  1.122310e+01  7.212004e+00  7.761162e+00  # H02 probe1
    136      23    4   0.0755  1.195610e+01  5.659676e+00  8.256908e+00  # H03 probe1
    137      23    5  -0.5765  1.040592e+01  5.519446e+00  6.884241e+00  # O04 probe1
    138      23    6   0.4013  1.100378e+01  5.565278e+00  6.149597e+00  # H05 probe1
    139      24    1   0.0755  8.693181e+00  5.527205e+00  1.627791e+01  # H00 probe1
    140      24    2  -0.0513  8.647007e+00  5.572074e+00  1.518581e+01  # C01 probe1
    141      24    3   0.0755  7.722210e+00  6.077088e+00  1.488102e+01  # H02 probe1
    142      24    4   0.0755  9.506437e+00  6.139084e+00  1.480713e+01  # H03 probe1
    143      24    5  -0.5765  8.675196e+00  4.237691e+00  1.478119e+01  # O04 probe1
    144      24    6   0.4013  8.637934e+00  4.227357e+00  1.383370e+01  # H05 probe1
    145      25    1   0.0755  7.872982e+00  1.496296e+00  1.071857e+01  # H00 probe1
    146      25    2  -0.0513  7.808918e+00  1.902633e+00  1.173228e+01  # C01 probe1
    147      25    3   0.0755  7.725568e+00  2.995198e+00  1.168190e+01  # H02 probe1
    148      25    4   0.0755  6.920084e+00  1.498139e+00  1.223216e+01  # H03 probe1
    149      25    5  -0.5765  8.992232e+00  1.493459e+00  1.234664e+01  # O04 probe1
    150      25    6   0.4013  8.980185e+00  1.824590e+00  1.323515e+01  # H05 probe1
    151      26    1   0.0755  7.808450e+00  1.633146e+01  2.641723e+00  # H00 probe1
    152      26    2  -0.0513  8.799632e+00  1.662560e+01  2.284125e+00  # C01 probe1
    153      26    3   0.0755  8.692525e+00  1.737283e+01  1.488291e+00  # H02 probe1
    154      26    4   0.0755  9.371291e+00  1.706318e+01  3.111918e+00  # H03 probe1
    155      26    5  -0.5765  9.367758e+00  1.543989e+01  1.818922e+00  # O04 probe1
    156      26    6   0.4013  1.023542e+01  1.564762e+01  1.497588e+00  # H05 probe1
    157      27    1   0.0755  1.519978e+01  7.687211e+00  8.829680e+00  # H00 probe1
    158      27    2  -0.0513  1.445905e+01  8.473688e+00  8.657577e+00  # C01 probe1
    159      27    3   0.0755  1.483238e+01  9.420930e+00  9.065670e+00  # H02 probe1
    160      27    4   0.0755  1.429275e+01  8.588833e+00  7.579338e+00  # H03 probe1
    161      27    5  -0.5765  1.331735e+01  8.028138e+00  9.323225e+00  # O04 probe1
    162      27    6   0.4013  1.264275e+01  8.683016e+00  9.199584e+00  # H05 probe1
    163      28    1   0.0755  8.739024e+00  1.498831e+00  1.737145e+01  # H00 probe1
    164      28    2  -0.0513  7.959785e+00  2.091757e+00  1.688354e+01  # C01 probe1
    165      28    3   0.0755  6.994742e+00  1.891114e+00  1.736481e+01  # H02 probe1
    166      28    4   0.0755  8.195680e+00  3.158369e+00  1.698457e+01  # H03 probe1
    167      28    5  -0.5765  7.982247e+00  1.669685e+00  1.555446e+01  # O04 probe1
    168      28    6   0.4013  7.318347e+00  2.161466e+00  1.508903e+01  # H05 probe1
    169      29    1   0.0755  1.487369e+00  3.473691e+00  1.488994e+00  # H00 probe1
    170      29    2  -0.0513  2.224176e+00  3.177454e+00  2.241454e+00  # C01 probe1
    171      29    3   0.0755  3.216670e+00  3.533266e+00  1.938906e+00  # H02 probe1
    172      29    4   0.0755  1.961148e+00  3.627365e+00  3.206809e+00  # H03 probe1
    173      29    5  -0.5765  2.151268e+00  1.785002e+00  2.270604e+00  # O04 probe1
    174      29    6   0.4013  2.777054e+00  1.481257e+00  2.915097e+00  # H05 probe1
    175      30    1   0.0755  1.686736e+01  1.113619e+01  1.737244e+01  # H00 probe1
    176      30    2  -0.0513  1.639746e+01  1.201621e+01  1.692346e+01  # C01 probe1
    177      30    3   0.0755  1.541151e+01  1.217394e+01  1.737755e+01  # H02 probe1
    178      30    4   0.0755  1.702264e+01  1.289841e+01  1.710891e+01  # H03 probe1
    179      30    5  -0.5765  1.630794e+01  1.170850e+01  1.556611e+01  # O04 probe1
    180      30    6   0.4013  1.590439e+01  1.244930e+01  1.513296e+01  # H05 probe1
    181      31    1   0.0755  5.335764e+00  6.374665e+00  5.792642e+00  # H00 probe1
    182      31    2  -0.0513  5.047399e+00  5.425960e+00  5.330430e+00  # C01 probe1
    183      31    3   0.0755  5.947926e+00  4.891759e+00  5.003529e+00  # H02 probe1
    184      31    4   0.0755  4.512069e+00  4.810409e+00  6.063937e+00  # H03 probe1
    185      31    5  -0.5765  4.235942e+00  5.794038e+00  4.257516e+00  # O04 probe1
    186      31    6   0.4013  3.959142e+00  4.997202e+00  3.824303e+00  # H05 probe1
    187      32    1   0.0755  1.453825e+01  1.453491e+01  1.536874e+00  # H00 probe1
    188      32    2  -0.0513  1.538351e+01  1.395241e+01  1.915114e+00  # C01 probe1
    189      32    3   0.0755  1.532532e+01  1.389460e+01  3.008939e+00  # H02 probe1
    190      32    4   0.0755  1.534247e+01  1.293778e+01  1.499976e+00  # H03 probe1
    191      32    5  -0.5765  1.650968e+01  1.465368e+01  1.484927e+00  # O04 probe1
    192      32    6   0.4013  1.727266e+01  1.418119e+01  1.791289e+00  # H05 probe1
    193      33    1   0.0755  8.829643e+00  1.467335e+01  5.650093e+00  # H00 probe1
    194      33    2  -0.0513  8.717910e+00  1.358522e+01  5.631845e+00  # C01 probe1
    195      33    3   0.0755  8.709532e+00  1.320288e+01  6.659913e+00  # H02 probe1
    196      33    4   0.0755  7.770449e+00  1.332371e+01  5.144561e+00  # H03 probe1
    197      33    5  -0.5765  9.823944e+00  1.313384e+01  4.912100e+00  # O04 probe1
    198      33    6   0.4013  9.768280e+00  1.218816e+01  4.869282e+00  # H05 probe1
    199      34    1   0.0755  1.491483e+00  1.584949e+01  1.057987e+01  # H00 probe1
    200      34    2  -0.0513  2.193723e+00  1.644073e+01  9.984776e+00  # C01 probe1
    201      34    3   0.0755  2.623366e+00  1.581051e+01  9.196474e+00  # H02 probe1
    202      34    4   0.0755  1.662211e+00  1.728129e+01  9.521678e+00  # H03 probe1
    203      34    5  -0.5765  3.155513e+00  1.686487e+01  1.090138e+01  # O04 probe1
    204      34    6   0.4013  3.789723e+00  1.738621e+01  1.042681e+01  # H05 probe1
    205      35    1   0.0755  3.302022e+00  9.201408e+00  1.737872e+01  # H00 probe1
    206      35    2  -0.0513  3.060205e+00  8.213602e+00  1.697548e+01  # C01 probe1
    207      35    3   0.0755  3.156755e+00  8.232798e+00  1.588301e+01  # H02 probe1
    208      35    4   0.0755  3.757769e+00  7.471888e+00  1.738387e+01  # H03 probe1
    209      35    5  -0.5765  1.746474e+00  7.983377e+00  1.738316e+01  # O04 probe1
    210      35    6   0.4013  1.492402e+00  7.130881e+00  1.705462e+01  # H05 probe1
    211      36    1   0.0755  4.719521e+00  1.696279e+01  3.209533e+00  # H00 probe1
    212      36    2  -0.0513  5.268050e+00  1.675167e+01  4.132235e+00  # C01 probe1
    213      36    3   0.0755  6.154430e+00  1.739572e+01  4.184242e+00  # H02 probe1
    214      36    4   0.0755  4.623542e+00  1.695871e+01  4.995518e+00  # H03 probe1
    215      36    5  -0.5765  5.604173e+00  1.540153e+01  4.036096e+00  # O04 probe1
    216      36    6   0.4013  6.083915e+00  1.517168e+01  4.821115e+00  # H05 probe1
    217      37    1   0.0755  1.497197e+01  1.364708e+01  5.471213e+00  # H00 probe1
    218      37    2  -0.0513  1.580445e+01  1.383662e+01  6.155240e+00  # C01 probe1
    219      37    3   0.0755  1.630691e+01  1.476832e+01  5.867732e+00  # H02 probe1
    220      37    4   0.0755  1.542076e+01  1.393732e+01  7.178059e+00  # H03 probe1
    221      37    5  -0.5765  1.663437e+01  1.272525e+01  6.009739e+00  # O04 probe1
    222      37    6   0.4013  1.737504e+01  1.284604e+01  6.589442e+00  # H05 probe1
    223      38    1   0.0755  1.401882e+01  9.291045e+00  3.424685e+00  # H00 probe1
    224      38    2  -0.0513  1.312994e+01  9.564813e+00  4.000676e+00  # C01 probe1
    225      38    3   0.0755  1.295208e+01  1.064297e+01  3.905108e+00  # H02 probe1
    226      38    4   0.0755  1.226030e+01  9.022159e+00  3.609808e+00  # H03 probe1
    227      38    5  -0.5765  1.343695e+01  9.196721e+00  5.310386e+00  # O04 probe1
    228      38    6   0.4013  1.268858e+01  9.416056e+00  5.849899e+00  # H05 probe1
    229      39    1   0.0755  7.724496e+00  6.586875e+00  9.862494e+00  # H00 probe1
    230      39    2  -0.0513  7.073119e+00  5.995556e+00  9.212198e+00  # C01 probe1
    231      39    3   0.0755  6.923792e+00  5.002162e+00  9.652712e+00  # H02 probe1
    232      39    4   0.0755  6.101107e+00  6.495274e+00  9.117385e+00  # H03 probe1
    233      39    5  -0.5765  7.756189e+00  5.934816e+00  7.997779e+00  # O04 probe1
    234      39    6   0.4013  7.224298e+00  5.428555e+00  7.397754e+00  # H05 probe1
    235      40    1   0.0755  7.731109e+00  1.072321e+01  4.103557e+00  # H00 probe1
    236      40    2  -0.0513  7.899410e+00  1.047824e+01  3.050703e+00  # C01 probe1
    237      40    3   0.0755  8.375928e+00  9.492942e+00  2.977902e+00  # H02 probe1
    238      40    4   0.0755  6.937435e+00  1.045082e+01  2.524046e+00  # H03 probe1
    239      40    5  -0.5765  8.727822e+00  1.149859e+01  2.584118e+00  # O04 probe1
    240      40    6   0.4013  8.900863e+00  1.132723e+01  1.667641e+00  # H05 probe1
    241      41    1   0.0755  9.902598e+00  9.885295e+00  1.575137e+01  # H00 probe1
    242      41    2  -0.0513  9.685024e+00  9.493373e+00  1.674931e+01  # C01 probe1
    243      41    3   0.0755  1.058258e+01  9.572040e+00  1.737493e+01  # H02 probe1
    244      41    4   0.0755  8.878350e+00  1.008128e+01  1.720446e+01  # H03 probe1
    245      41    5  -0.5765  9.312406e+00  8.167604e+00  1.652891e+01  # O04 probe1
    246      41    6   0.4013  9.111906e+00  7.784842e+00  1.737302e+01  # H05 probe1
    247      42    1   0.0755  1.306273e+01  1.681511e+01  4.170282e+00  # H00 probe1
    248      42    2  -0.0513  1.200686e+01  1.669834e+01  3.908864e+00  # C01 probe1
    249      42    3   0.0755  1.140001e+01  1.735652e+01  4.542680e+00  # H02 probe1
    250      42    4   0.0755  1.185815e+01  1.697603e+01  2.858012e+00  # H03 probe1
    251      42    5  -0.5765  1.173776e+01  1.534985e+01  4.141748e+00  # O04 probe1
    252      42    6   0.4013  1.082650e+01  1.520068e+01  3.925911e+00  # H05 probe1
    253      43    1   0.0755  1.714098e+01  8.820870e+00  1.647003e+01  # H00 probe1
    254      43    2  -0.0513  1.663066e+01  7.905955e+00  1.615484e+01  # C01 probe1
    255      43    3   0.0755  1.737482e+01  7.163929e+00  1.584050e+01  # H02 probe1
    256      43    4   0.0755  1.605426e+01  7.501248e+00  1.699596e+01  # H03 probe1
    257      43    5  -0.5765  1.581260e+01  8.309569e+00  1.509988e+01  # O04 probe1
    258      43    6   0.4013  1.534608e+01  7.543155e+00  1.479294e+01  # H05 probe1
    259      44    1   0.0755  1.744961e+00  1.493714e+00  1.123172e+01  # H00 probe1
    260      44    2  -0.0513  2.361085e+00  2.090142e+00  1.055238e+01  # C01 probe1
    261      44    3   0.0755  2.752753e+00  2.963476e+00  1.108817e+01  # H02 probe1
    262      44    4   0.0755  3.201606e+00  1.483068e+00  1.019391e+01  # H03 probe1
    263      44    5  -0.5765  1.493349e+00  2.451194e+00  9.521959e+00  # O04 probe1
    264      44    6   0.4013  1.988155e+00  2.972785e+00  8.903616e+00  # H05 probe1
    265      45    1   0.0755  1.710605e+01  4.119454e+00  3.806762e+00  # H00 probe1
    266      45    2  -0.0513  1.688108e+01  3.474786e+00  4.661530e+00  # C01 probe1
    267      45    3   0.0755  1.737506e+01  3.871777e+00  5.556831e+00  # H02 probe1
    268      45    4   0.0755  1.579707e+01  3.455791e+00  4.829055e+00  # H03 probe1
    269      45    5  -0.5765  1.738076e+01  2.225089e+00  4.295912e+00  # O04 probe1
    270      45    6   0.4013  1.720585e+01  1.628658e+00  5.012094e+00  # H05 probe1
    271      46    1   0.0755  5.157966e+00  1.496262e+00  1.400527e+01  # H00 probe1
    272      46    2  -0.0513  4.434382e+00  1.991410e+00  1.335098e+01  # C01 probe1
    273      46    3   0.0755  4.724985e+00  3.040301e+00  1.321475e+01  # H02 probe1
    274      46    4   0.0755  4.424569e+00  1.492517e+00  1.237398e+01  # H03 probe1
    275      46    5  -0.5765  3.217201e+00  1.865800e+00  1.402015e+01  # O04 probe1
    276      46    6   0.4013  2.554635e+00  2.283093e+00  1.348525e+01  # H05 probe1
    277      47    1   0.0755  9.496532e+00  9.021568e+00  9.319859e+00  # H00 probe1
    278      47    2  -0.0513  9.843574e+00  8.891323e+00  1.034915e+01  # C01 probe1
    279      47    3   0.0755  1.038763e+01  7.942516e+00  1.043253e+01  # H02 probe1
    280      47    4   0.0755  1.051760e+01  9.715341e+00  1.061411e+01  # H03 probe1
    281      47    5  -0.5765  8.676811e+00  8.897181e+00  1.111316e+01  # O04 probe1
    282      47    6   0.4013  8.930700e+00  8.787297e+00  1.202019e+01  # H05 probe1
    283      48    1   0.0755  1.503971e+00  7.406115e+00  1.585874e+00  # H00 probe1
    284      48    2  -0.0513  2.315394e+00  6.898580e+00  2.115814e+00  # C01 probe1
    285      48    3   0.0755  2.279592e+00  7.166685e+00  3.178839e+00  # H02 probe1
    286      48    4   0.0755  2.193738e+00  5.812895e+00  2.015804e+00  # H03 probe1
    287      48    5  -0.5765  3.477069e+00  7.358923e+00  1.496392e+00  # O04 probe1
    288      48    6   0.4013  4.212377e+00  6.941408e+00  1.925625e+00  # H05 probe1
    289      49    1   0.0755  3.090872e+00  6.245687e+00  7.679801e+00  # H00 probe1
    290      49    2  -0.0513  2.096382e+00  6.147118e+00  7.234705e+00  # C01 probe1
    291      49    3   0.0755  1.599985e+00  5.259511e+00  7.645710e+00  # H02 probe1
    292      49    4   0.0755  1.499142e+00  7.035337e+00  7.475300e+00  # H03 probe1
    293      49    5  -0.5765  2.337821e+00  6.028085e+00  5.866266e+00  # O04 probe1
    294      49    6   0.4013  1.497250e+00  5.940698e+00  5.436099e+00  # H05 probe1
    295      50    1   0.0755  5.453869e+00  5.080691e+00  1.190326e+01  # H00 probe1
    296      50    2  -0.0513  6.063007e+00  5.930866e+00  1.222418e+01  # C01 probe1
    297      50    3   0.0755  5.845740e+00  6.795932e+00  1.158571e+01  # H02 probe1
    298      50    4   0.0755  5.819431e+00  6.182638e+00  1.326379e+01  # H03 probe1
    299      50    5  -0.5765  7.378443e+00  5.489811e+00  1.208210e+01  # O04 probe1
    300      50    6   0.4013  7.946646e+00  6.199392e+00  1.235206e+01  # H05 probe1
    301      51    1   0.0755  1.151355e+01  1.144380e+01  1.407623e+01  # H00 probe1
    302      51    2  -0.0513  1.079740e+01  1.140248e+01  1.325024e+01  # C01 probe1
    303      51    3   0.0755  1.134128e+01  1.136896e+01  1.229826e+01  # H02 probe1
    304      51    4   0.0755  1.018358e+01  1.049810e+01  1.334425e+01  # H03 probe1
    305      51    5  -0.5765  1.004380e+01  1.256832e+01  1.338438e+01  # O04 probe1
    306      51    6   0.4013  9.403957e+00  1.257501e+01  1.268452e+01  # H05 probe1
    307      52    1   0.0755  1.480904e+01  1.494127e+00  1.728383e+01  # H00 probe1
    308      52    2  -0.0513  1.390087e+01  1.994079e+00  1.693436e+01  # C01 probe1
    309      52    3   0.0755  1.384770e+01  1.929504e+00  1.584066e+01  # H02 probe1
    310      52    4   0.0755  1.302235e+01  1.498441e+00  1.736570e+01  # H03 probe1
    311      52    5  -0.5765  1.403542e+01  3.309649e+00  1.737737e+01  # O04 probe1
    312      52    6   0.4013  1.326421e+01  3.784350e+00  1.709606e+01  # H05 probe1
    313      53    1   0.0755  1.355962e+01  1.516161e+01  1.461607e+01  # H00 probe1
    314      53    2  -0.0513  1.311887e+01  1.418166e+01  1.441050e+01  # C01 probe1
    315      53    3   0.0755  1.292800e+01  1.366244e+01  1.535769e+01  # H02 probe1
    316      53    4   0.0755  1.216971e+01  1.431313e+01  1.387635e+01  # H03 probe1
    317      53    5  -0.5765  1.407470e+01  1.352596e+01  1.363490e+01  # O04 probe1
    318      53    6   0.4013  1.373268e+01  1.266555e+01  1.343009e+01  # H05 probe1
    319      54    1   0.0755  1.737111e+01  1.547790e+00  1.224848e+01  # H00 probe1
    320      54    2  -0.0513  1.689636e+01  2.166976e+00  1.301533e+01  # C01 probe1
    321      54    3   0.0755  1.725421e+01  3.199679e+00  1.292232e+01  # H02 probe1
    322      54    4   0.0755  1.580837e+01  2.150800e+00  1.287554e+01  # H03 probe1
    323      54    5  -0.5765  1.728234e+01  1.583529e+00  1.422185e+01  # O04 probe1
    324      54    6   0.4013  1.689005e+01  2.090365e+00  1.492076e+01  # H05 probe1
    325      55    1   0.0755  2.686957e+00  1.701792e+01  1.730401e+01  # H00 probe1
    326      55    2  -0.0513  2.778587e+00  1.616421e+01  1.662606e+01  # C01 probe1
    327      55    3   0.0755  3.106657e+00  1.651586e+01  1.564021e+01  # H02 probe1
    328      55    4   0.0755  3.522718e+00  1.546200e+01  1.702189e+01  # H03 probe1
    329      55    5  -0.5765  1.498798e+00  1.561125e+01  1.658784e+01  # O04 probe1
    330      55    6   0.4013  1.530617e+00  1.486131e+01  1.600834e+01  # H05 probe1
    331      56    1   0.0755  4.882575e+00  1.578357e+01  8.126303e+00  # H00 probe1
    332      56    2  -0.0513  5.249662e+00  1.677871e+01  7.858387e+00  # C01 probe1
    333      56    3   0.0755  4.423006e+00  1.737449e+01  7.452349e+00  # H02 probe1
    334      56    4   0.0755  5.643579e+00  1.727567e+01  8.753582e+00  # H03 probe1
    335      56    5  -0.5765  6.241679e+00  1.653941e+01  6.907742e+00  # O04 probe1