ITEM: TIMESTEP
10000
ITEM: NUMBER OF ATOMS
600
ITEM: BOX BOUNDS pp pp pp
0.0000000000000000e+00 1.8870000000000001e+01
0.0000000000000000e+00 1.8870000000000001e+01
0.0000000000000000e+00 1.8870000000000001e+01
ITEM: ATOMS element xu yu zu
H 2.18217 11.7294 9.18817
C 2.32187 10.8029 9.74517
H 2.25227 9.9043 9.13217
H 3.26504 10.8793 10.2862
O 1.19669 10.9185 10.6192
H 0.402112 11.0071 10.1154
H 16.6735 13.2324 7.52541
C 15.7969 13.1456 6.88346
H 16.0545 13.4823 5.87928
H 15.542 12.0938 6.75336
O 14.6951 13.8546 7.37398
H 15.037 14.725 7.5101
H 12.3187 11.3877 10.5471
C 12.1775 11.1884 9.48485
H 13.0117 10.5968 9.10747
H 11.3809 10.467 9.30291
O 11.9585 12.3428 8.64296
H 12.8153 12.5823 8.32425
H 14.7933 17.0863 17.3046
C 15.0998 17.3102 18.3264
H 15.0127 16.5173 19.0693
H 16.1474 17.5935 18.2245
O 14.4426 18.4229 18.8023
H 14.8148 18.6744 19.6337
H 18.6039 10.9595 16.0683
C 17.5485 10.7362 15.9125
H 17.5565 9.65531 15.7718
H 16.9197 10.8462 16.796
O 16.9776 11.1987 14.6725
H 16.7015 12.094 14.796
H 8.84244 11.1932 10.4425
C 8.13852 10.5932 11.0192
H 7.98539 9.60749 10.5799
H 8.47999 10.3858 12.0334
O 6.85706 11.2148 11.0198
H 6.25525 10.7162 11.5511
H -0.0965729 12.9007 -0.0457548
C 0.99334 12.8873 -0.0425044
H 1.43044 12.9527 -1.03889
H 1.29287 13.6943 0.626173
O 1.45576 11.6329 0.304769
H 2.39257 11.5187 0.255809
H 9.17706 14.016 18.4206
C 8.62797 14.9079 18.1187
H 8.27934 15.4499 18.9978
H 9.24047 15.5102 17.4477
O 7.48177 14.3543 17.4333
H 7.74534 13.7184 16.7859
H 3.63335 23.0795 14.4523
C 4.28745 23.2958 13.6076
H 4.40891 22.4452 12.937
H 3.68556 24.0749 13.1397
O 5.56288 23.8955 13.9644
H 5.50631 24.5604 14.6336
H 13.9654 11.1155 1.93293
C 13.5871 10.4166 1.18699
H 14.3317 10.3022 0.399232
H 13.2474 9.46 1.58415
O 12.4054 11.0972 0.749223
H 12.0157 11.4593 1.5303
H 12.8673 2.8743 3.97148
C 12.4104 3.76192 4.40898
H 12.2232 4.40018 3.54544
H 11.5254 3.56773 5.01498
O 13.4124 4.37005 5.22773
H 14.1227 4.58968 4.64442
H 9.30609 7.32789 12.4893
C 8.25718 7.23702 12.2072
H 7.81156 6.42141 12.7766
H 7.7708 8.10279 12.6566
O 8.0496 7.1601 10.7987
H 8.44281 6.34765 10.5188
H 7.83468 -0.892293 5.50602
C 7.93124 -1.92877 5.18277
H 8.10975 -1.95642 4.10785
H 8.7615 -2.41921 5.69095
O 6.78071 -2.66599 5.47989
H 6.7334 -3.41995 4.91215
H 7.89738 12.0226 7.55996
C 7.05605 12.6523 7.27046
H 7.39546 13.683 7.16822
H 6.6467 12.3069 6.32113
O 6.0827 12.3806 8.28558
H 6.48714 12.4779 9.1341
H 19.7369 10.5915 7.12015
C 19.945 9.6708 6.57512
H 20.3313 8.9021 7.24445
H 18.9427 9.32242 6.32576
O 20.8806 9.83299 5.50032
H 21.7311 10.0289 5.86268
H 0.983419 19.6126 16.0522
C 0.984821 20.5274 16.6449
H 1.80154 20.4854 17.3655
H 1.06114 21.4303 16.0389
O -0.153445 20.6634 17.4893
H -0.182315 19.8283 17.9308
H 12.3264 -4.23627 14.9713
C 11.5588 -3.49937 15.2077
H 11.4244 -3.56538 16.2873
H 11.9881 -2.52373 14.9798
O 10.3373 -3.71314 14.5169
H 9.77922 -2.95614 14.6092
H 14.8292 14.5541 13.7569
C 15.1758 15.4114 14.334
H 14.8829 16.275 13.737
H 14.6388 15.4497 15.2818
O 16.6218 15.3833 14.588
H 17.0275 15.121 13.7758
H 11.0972 0.187439 15.5211
C 11.9976 0.310748 16.123
H 12.8217 0.401776 15.4155
H 11.8838 1.25597 16.6538
O 12.1133 -0.763631 17.1047
H 12.7655 -0.503395 17.7372
H 10.0116 5.418 3.44964
C 9.5827 5.89656 2.56925
H 10.2108 6.76211 2.35858
H 9.42488 5.30572 1.66697
O 8.32243 6.36017 3.04281
H 8.40924 7.06178 3.6699
H -2.20494 17.2668 9.74446
C -2.02878 16.4076 9.0973
H -0.979333 16.5243 8.8269
H -2.24116 15.4322 9.53504
O -2.65259 16.4988 7.7869
H -2.71383 17.4218 7.59364
H 6.83579 4.17114 16.3887
C 7.47742 5.05192 16.3635
H 8.38696 4.81054 16.9135
H 7.81273 5.27924 15.3515
O 6.94889 6.27726 16.8652
H 6.82071 6.19716 17.798
H 6.26285 2.48614 11.2512
C 7.02119 3.22872 11.4994
H 7.89324 3.16049 10.849
H 6.63879 4.24732 11.4338
O 7.49566 2.94139 12.7976
H 6.96626 3.52578 13.3184
H 15.4096 2.94835 12.7715
C 14.5893 3.6522 12.9123
H 13.8064 3.24003 12.2757
H 14.1829 3.68174 13.9233
O 15.0777 4.97212 12.7918
H 15.7104 5.18786 13.4597
H 7.605 -1.77618 15.988
C 7.84283 -0.980179 15.2824
H 7.06484 -1.10781 14.5297
H 7.80824 0.0540215 15.6249
O 9.18082 -1.15964 14.8145
H 9.17343 -0.476429 14.1617
H 17.811 29.0192 2.28018
C 18.5417 29.0705 3.08739
H 19.3975 29.7191 2.90074
H 17.9241 29.614 3.80244
O 18.8787 27.8681 3.58242
H 19.5508 27.9555 4.24086
H 7.80924 5.95925 7.47495
C 7.20301 5.16773 7.0344
H 7.73741 4.21896 7.0828
H 6.34405 5.06123 7.69693
O 6.79655 5.54167 5.74321
H 6.65592 4.76158 5.22872
H 9.53611 1.58829 20.3865
C 10.599 1.76308 20.2199
H 10.6591 1.38596 19.199
H 10.9479 2.79447 20.2714
O 11.3453 0.892664 21.0567
H 11.4483 0.0998804 20.5528
H -1.50088 1.77827 8.61322
C -1.70907 1.38242 7.61921
H -2.10295 2.30605 7.1951
H -0.730367 1.10244 7.22953
O -2.74022 0.365867 7.57097
H -3.54233 0.683561 7.95663
H 23.6771 11.7836 13.9623
C 23.3748 11.0755 13.1907
H 22.294 11.0913 13.0502
H 23.9133 11.5531 12.3722
O 23.8014 9.80043 13.5114
H 23.6789 9.29183 12.7244
H 2.89264 5.19762 4.40038
C 2.84403 5.6108 5.40787
H 2.74915 6.69296 5.31823
H 1.97306 5.14344 5.86731
O 3.91849 5.32946 6.25886
H 4.71227 5.59159 5.81815
H 14.9322 7.40808 0.328473
C 15.9818 7.54291 0.0669583
H 16.5118 6.6462 0.387972
H 16.009 7.76275 -1.00029
O 16.2534 8.6344 0.858116
H 17.1521 8.80865 0.623885
H 11.0356 19.9969 7.05197
C 11.0816 19.3141 6.20351
H 10.357 19.76 5.52221
H 12.0479 19.2601 5.70202
O 10.6253 18.0528 6.68725
H 9.77886 18.1558 7.0946
H 3.93573 14.1376 12.9596
C 4.17018 14.8888 12.2054
H 4.48181 14.5386 11.2213
H 3.23589 15.4074 11.9904
O 5.11022 15.7332 12.7894
H 5.88386 15.1942 12.7267
H 10.7391 5.3733 14.3354
C 11.7329 4.92724 14.3732
H 11.8877 4.75074 13.3088
H 12.3155 5.81837 14.6069
O 11.8545 3.84741 15.318
H 11.1115 3.28224 15.171
H 3.82833 17.8095 6.91975
C 3.57125 16.9455 6.30706
H 4.12194 16.0714 6.65476
H 2.50206 16.7857 6.44644
O 3.95532 17.0631 4.96918
H 4.89672 17.0386 4.89045
H 11.6598 12.6642 4.92094
C 12.6725 12.8769 4.57862
H 13.2936 13.3682 5.32763
H 13.0659 11.9812 4.0978
O 12.4896 13.8773 3.60912
H 12.0638 14.6235 4.0027
H 8.26415 12.2989 2.99096
C 7.88772 13.3211 3.02924
H 8.74037 13.996 2.95468
H 7.29011 13.4703 2.12997
O 7.12728 13.5973 4.19287
H 6.21962 13.339 4.1438
H 0.0852056 0.766163 13.5029
C -0.8292 0.219576 13.2722
H -1.04689 -0.579719 13.9806
H -1.66738 0.866589 13.5309
O -0.826228 0.0203055 11.8843
H -1.74232 0.108306 11.6697
H 8.08863 10.0539 5.58426
C 8.2317 9.56212 4.62207
H 7.28431 9.45772 4.09325
H 8.87059 10.1916 4.00267
O 8.79553 8.30241 4.89428
H 8.71011 7.96015 5.77097
H 11.6324 7.92247 11.0197
C 12.3051 7.19694 11.4771
H 13.0639 7.74923 12.0314
H 11.7807 6.81872 12.3546
O 12.8818 6.03389 10.8749
H 13.7352 5.91503 11.2631
H 15.5051 24.9973 2.8708
C 15.4259 23.9496 2.58071
H 14.434 23.6411 2.25027
H 16.0814 23.6714 1.75549
O 15.6041 23.0439 3.74234
H 15.2303 22.1853 3.6157
H 18.1336 6.1517 21.4983
C 19.1572 6.14352 21.8728
H 19.2217 6.47857 22.9081
H 19.4683 5.09974 21.9155
O 19.9846 6.81913 20.9577
H 19.56 7.66338 20.9594
H -5.50173 0.191264 11.602
C -4.60288 0.202575 12.2185
H -4.77412 0.997092 12.9448
H -4.37244 -0.752498 12.6905
O -3.47621 0.695306 11.4528
H -3.62858 1.57857 11.1534
H 15.6514 7.34562 6.39865
C 16.5421 7.83891 6.00959
H 17.0568 8.33638 6.83158
H 17.0722 6.9251 5.74117
O 16.2681 8.69051 4.93744
H 17.0837 8.88145 4.5001
H -4.54096 1.92099 15.5735
C -3.57075 1.4648 15.7702
H -3.64267 1.11431 16.7998
H -3.28853 0.600621 15.1688
O -2.55663 2.44955 15.6772
H -1.74936 2.18323 16.09
H 1.73748 9.47672 14.4894
C 1.28659 8.81631 13.7487
H 1.15781 7.88002 14.2918
H 0.251104 9.11194 13.58
O 2.10666 8.65244 12.5724
H 1.88542 9.34436 11.968
H 3.21452 1.49361 1.60781
C 3.32844 0.454646 1.91714
H 2.29345 0.116521 1.86637
H 3.92936 -0.0783438 1.18031
O 4.03577 0.365624 3.1537
H 3.73228 -0.360626 3.67666
H 3.57447 1.00555 6.44013
C 3.67149 2.08011 6.28514
H 4.51261 2.24605 5.61202
H 2.80125 2.47614 5.76175
O 3.79354 2.82995 7.47812
H 3.72519 3.72658 7.18758
H 3.84485 7.12678 10.9602
C 4.91843 7.19665 10.7852
H 5.34006 6.55781 11.5612
H 5.14274 6.92356 9.75406
O 5.53071 8.48227 10.9648
H 6.47222 8.44801 10.8912
H 7.51586 14.7354 14.4375
C 7.39642 13.7046 14.1041
H 6.34385 13.4898 14.2887
H 7.57692 13.4685 13.0554
O 8.20312 12.9474 14.962
H 9.089 13.2298 14.7932
H 13.6543 3.34241 17.1923
C 14.2547 4.16022 17.5907
H 14.5532 4.75131 16.7249
H 13.7842 4.78862 18.3469
O 15.3273 3.63674 18.2927
H 15.8989 3.33513 17.6032
H 12.1452 13.5595 11.9881
C 11.8256 14.4065 11.381
H 12.4935 14.5731 10.5358
H 10.8143 14.1787 11.0443
O 11.7476 15.5729 12.0915
H 11.3314 15.4407 12.9295
H 13.7681 -4.58626 17.8132
C 14.6754 -5.14521 18.0423
H 15.3708 -4.36093 18.3415
H 14.5007 -5.8207 18.8797
O 15.2748 -5.93565 17.0305
H 14.5919 -6.55238 16.8152
H 1.13179 16.3053 12.596
C 0.608925 15.4381 12.1926
H 1.01524 15.309 11.1895
H 0.805944 14.5939 12.8533
O -0.800709 15.7426 12.0814
H -0.855651 16.6704 11.9106
H 4.77562 18.6588 8.99525
C 4.93952 18.1505 9.9454
H 5.96978 18.3718 10.2241
H 4.24733 18.3746 10.757
O 5.00764 16.7232 9.78283
H 5.25794 16.3982 10.6342
H 19.8158 4.31495 9.72042
C 19.9072 5.3943 9.59894
H 20.9315 5.59644 9.2858
H 19.3423 5.57411 8.68426
O 19.4594 6.25894 10.6682
H 19.866 7.10244 10.5409
H 5.35852 17.0027 20.2423
C 6.32787 17.439 20.0012
H 6.40857 18.5001 20.2374
H 7.13387 16.8736 20.4689
O 6.33473 17.35 18.5934
H 6.34368 16.4654 18.2612
H 4.15938 -2.3254 16.1373
C 3.57387 -2.65021 16.9974
H 2.50434 -2.78597 16.8368
H 4.03156 -3.5802 17.3346
O 3.61554 -1.65835 18.0412
H 4.49264 -1.33524 18.1802
H 4.54777 5.25434 0.816274
C 5.25768 5.71845 1.50091
H 5.11604 6.79809 1.55009
H 5.14533 5.29002 2.49686
O 6.52896 5.55518 0.948256
H 7.17065 5.98118 1.49578
H 4.27255 1.45631 14.1481
C 4.51148 0.678784 13.4225
H 3.83318 0.682575 12.5693
H 5.52126 0.793026 13.0283
O 4.38856 -0.554347 14.156
H 4.50912 -1.33886 13.6431
H 15.2474 18.97 4.28686
C 14.8957 18.7268 3.28421
H 14.3418 19.6075 2.95924
H 15.849 18.5701 2.77948
O 14.0565 17.6554 3.00678
H 13.3182 17.6064 3.59459
H 9.66926 6.79136 8.338
C 10.2131 5.86278 8.51153
H 9.72547 5.0533 7.96832
H 11.2454 5.97643 8.18061
O 10.2883 5.5145 9.93968
H 11.1926 5.66059 10.1719
H 11.8893 7.91384 -0.379545
C 11.1084 7.61728 -1.0797
H 11.5604 7.30783 -2.02206
H 10.7157 6.68914 -0.664385
O 10.0472 8.4739 -1.2491
H 9.49678 8.02708 -1.87388
H 16.4259 12.7386 10.3374
C 16.6451 12.5047 11.3792
H 17.7167 12.3241 11.4641
H 16.336 13.3522 11.991
O 15.8262 11.3918 11.7754
H 16.0584 11.1847 12.6677
H -0.327568 13.325 4.98248
C 0.25186 13.9058 5.7001
H 1.13267 14.3588 5.24511
H -0.357431 14.6843 6.15927
O 0.517729 13.0318 6.75325
H 1.33149 13.2945 7.15551
H 17.3283 7.72229 10.9156
C 16.6714 8.18911 10.1817
H 16.8832 7.68446 9.23903
H 15.6517 7.98109 10.506
O 16.9725 9.58034 9.90564
H 16.7077 10.1523 10.6098
H 10.0753 14.3694 7.08521
C 9.7899 14.7137 8.07924
H 10.587 15.3613 8.44445
H 8.88045 15.2862 7.89712
O 9.47626 13.6844 9.02154
H 10.1367 13.0232 8.88163
H 20.7569 8.48022 18.5613
C 19.8184 8.51207 18.0079
H 20.08 9.01092 17.0748
H 19.4265 7.51266 17.8189
O 18.8599 9.25786 18.6748
H 19.3084 10.023 19.0011
H 12.2541 16.2972 20.0847
C 11.1981 16.1199 19.8806
H 11.2353 15.4061 19.0578
H 10.7423 15.6014 20.7241
O 10.4178 17.2155 19.5183
H 10.8407 17.6205 18.7765
H 3.37005 8.9412 1.288
C 3.40031 9.38175 2.28455
H 2.58867 10.0969 2.41846
H 3.32742 8.56817 3.00625
O 4.702 9.95285 2.39284
H 4.67776 10.678 2.99838
H 19.2425 1.35568 2.7729
C 18.4695 1.17137 2.02687
H 17.5855 1.48212 2.58369
H 18.5851 1.93436 1.25708
O 18.4448 -0.183824 1.46911
H 18.4397 -0.869485 2.1194
H 2.18687 0.530117 9.29678
C 2.07242 1.43686 9.89076
H 1.31727 2.09242 9.45708
H 1.56613 1.04662 10.7736
O 3.13683 2.20976 10.3116
H 3.55239 2.5904 9.55303
H 14.197 16.4034 9.49884
C 13.2799 16.5883 8.93939
H 13.5927 17.3002 8.17554
H 12.7508 15.7254 8.53505
O 12.3992 17.2726 9.84358
H 12.1597 16.6316 10.4954
H 6.88057 1.68781 7.37778
C 7.63356 1.51586 8.14689
H 8.48954 2.18958 8.18579
H 7.07111 1.61202 9.0756
O 8.04669 0.16927 8.03607
H 7.36614 -0.472994 8.16788
H -0.808931 17.8381 -2.4966
C 0.025426 17.1384 -2.44764
H 0.540822 17.0794 -3.40628
H 0.749764 17.486 -1.71102
O -0.343551 15.854 -2.07781
H -0.958059 15.5845 -2.74325
H -1.93471 5.76063 16.8088
C -1.31661 5.68449 15.9143
H -0.384151 6.16989 16.2024
H -1.00076 4.64523 15.8233
O -1.85091 6.20565 14.7571
H -1.22353 6.10905 14.0571
H 19.5234 3.91384 0.759657
C 20.5492 4.06966 0.4254
H 21.2005 3.92099 1.28668
H 20.9191 3.50668 -0.431527
O 20.5372 5.37092 -0.106845
H 20.3781 5.9097 0.653049
H 2.69722 15.3909 8.3465
C 2.63769 14.3589 8.69203
H 3.14389 14.2224 9.64767
H 1.57902 14.1532 8.85018
O 3.30987 13.4992 7.7935
H 4.22263 13.7423 7.82233
H 3.21309 13.5422 4.519
C 3.59187 12.7275 3.90189
H 4.03959 12.0002 4.57914
H 2.73173 12.2576 3.42499
O 4.54347 13.0564 2.92039
H 4.16826 13.5561 2.21149
H 9.01025 10.0952 14.9669
C 8.21587 9.46477 15.3664
H 7.91524 9.71693 16.3834
H 7.33535 9.65502 14.7528
O 8.47177 8.0748 15.3221
H 7.69762 7.59371 15.5716
H 4.1645 9.23687 8.66548
C 4.64787 9.46554 7.71566
H 5.69478 9.59917 7.98807
H 4.78331 8.61597 7.04634
O 4.21087 10.6129 7.08657
H 4.7465 11.3266 7.39776
H 6.54537 1.61452 18.1811
C 7.40642 1.79671 18.8241
H 7.18665 1.53408 19.8589
H 8.17872 1.07754 18.5513
O 7.96251 3.08067 18.6172
H 7.36331 3.75539 18.8978
H 24.6627 12.0629 -0.381548
C 23.9342 11.5774 -1.0309
H 23.249 12.3424 -1.39614
H 24.4454 11.1372 -1.88704
O 23.0443 10.6836 -0.395386
H 23.5342 10.0439 0.0983697
H 10.264 0.380658 11.2193
C 10.2879 0.715805 12.2562
H 10.9261 0.00651679 12.7831
H 10.6112 1.7489 12.3837
O 8.97369 0.652977 12.7759
H 8.54218 1.49312 12.7444
H 13.6427 7.96367 -2.64481
C 14.0179 8.38955 -3.57538
H 14.7033 9.19485 -3.31119
H 14.5764 7.6139 -4.09934
O 12.8208 8.93404 -4.19774
H 12.5083 9.62618 -3.6353
H 23.0843 6.85624 15.3057
C 22.5799 6.86143 16.2719
H 23.2987 6.58336 17.0427
H 22.1249 7.81937 16.5239
O 21.5464 5.92452 16.2348
H 21.2657 5.7918 17.1274
H 8.16874 9.39365 20.492
C 7.65601 10.0144 19.7572
H 7.34264 9.2374 19.06
H 6.83048 10.5624 20.2114
O 8.58898 10.8442 19.1526
H 9.34382 10.3509 18.8698
H 17.0282 14.1689 2.12667
C 17.2464 15.2347 2.19418
H 16.3077 15.7142 1.91683
H 17.4243 15.4552 3.2467
O 18.2882 15.5251 1.29685
H 17.9163 15.324 0.451669
H 8.097 2.85966 2.97989
C 8.31973 2.60047 4.01493
H 8.70496 1.58158 3.97525
H 9.10768 3.27211 4.35571
O 7.17956 2.81435 4.82877
H 6.61304 2.05959 4.77966
H 13.2097 7.79469 5.30911
C 12.8221 8.26419 6.21323
H 13.3238 7.71723 7.0115
H 13.0752 9.32258 6.15101
O 11.4426 8.24702 6.1564
H 11.0298 8.80514 5.51522
H 3.04045 15.6843 3.04602
C 2.59679 15.7725 2.05431
H 1.7235 15.1212 2.09039
H 2.29648 16.7759 1.75245
O 3.52711 15.1936 1.09957
H 3.51948 15.8132 0.386118
H 1.18846 23.3904 14.1038
C 0.435845 22.9152 13.4746
H 0.995387 22.3514 12.7282
H -0.124609 22.2509 14.1324
O -0.383354 23.8138 12.7582
H 0.0590445 24.2901 12.0723
H 11.4282 11.8695 15.3375
C 11.7268 11.7164 16.3746
H 11.6948 12.7265 16.783
H 10.9365 11.1867 16.9066
O 12.9919 11.0732 16.7128
H 12.956 10.9779 17.6523
H 21.1078 12.1994 -3.79382
C 20.9582 13.2788 -3.76918
H 21.5937 13.7646 -3.02876
H 21.3127 13.6058 -4.74666
O 19.613 13.7133 -3.63785
H 19.4981 14.0208 -2.75171
H 16.8244 5.43125 9.39779
C 16.3108 4.47026 9.42661
H 15.3044 4.60383 9.82346
H 16.2342 4.04156 8.42739
O 17.0387 3.60693 10.2726
H 17.3698 4.11172 10.9997
H 14.0264 15.8481 5.00934
C 13.2356 16.3895 5.52865
H 13.1338 15.7063 6.37178
H 13.5519 17.3935 5.8118
O 12.0409 16.338 4.79731
H 11.4328 16.866 5.29174
H 12.2216 2.97865 8.97432
C 13.1116 2.7173 8.40198
H 12.9765 2.92458 7.34044
H 13.9085 3.40332 8.68928
O 13.5435 1.41274 8.6827
H 12.79 0.855989 8.8066
H 0.817069 17.7957 4.01845
C 0.0328836 17.7659 4.77493
H -0.52252 16.8287 4.73941
H 0.539855 17.6952 5.73727
O -0.94538 18.8339 4.86077
H -1.32824 18.8182 5.72459
H 7.80717 17.2672 11.5933
C 8.2253 16.3301 11.2255
H 8.54955 16.7446 10.271
H 9.07698 16.0008 11.8207
O 7.34543 15.2398 10.8516
H 7.79244 14.7344 10.1899
ITEM: TIMESTEP
11000
ITEM: NUMBER OF ATOMS
600
ITEM: BOX BOUNDS pp pp pp
0.0000000000000000e+00 1.8870000000000001e+01
0.0000000000000000e+00 1.8870000000000001e+01
0.0000000000000000e+00 1.8870000000000001e+01
ITEM: ATOMS element xu yu zu
H 0.851664 12.3765 10.2632
C 1.63272 11.6534 10.4977
H 1.44758 10.8206 9.81929
H 2.63895 11.9689 10.2217
O 1.57248 11.0764 11.8555
H 1.99283 11.6825 12.4466
H 16.3787 13.9647 5.70045
C 15.9179 13.3443 6.46923
H 15.538 12.4302 6.01291
H 16.6608 13.0919 7.22597
O 14.7708 13.9314 7.02847
H 15.0669 14.7758 7.33276
H 13.4009 11.0263 8.77693
C 12.4495 11.0407 8.24496
H 12.3857 10.1358 7.64058
H 11.755 10.9939 9.08371
O 12.1592 12.1989 7.4781
H 12.9882 12.515 7.15165
H 15.5082 18.389 17.2441
C 15.3714 18.5437 18.3143
H 15.5555 17.5716 18.7718
H 16.1101 19.2714 18.6502
O 14.0261 18.924 18.6191
H 13.9146 18.8068 19.5501
H 18.2136 9.96181 13.5123
C 17.1355 9.85403 13.3928
H 16.9371 9.34617 12.449
H 16.6946 9.14882 14.0973
O 16.4653 11.1238 13.614
H 16.5927 11.3627 14.5194
H 7.50235 11.0269 7.9115
C 7.6281 10.6939 8.94174
H 7.6355 9.64074 9.22253
H 8.57507 11.0908 9.30778
O 6.65744 11.4793 9.63426
H 6.88613 11.3945 10.5473
H -0.098376 12.1754 -0.671974
C 0.926798 12.3023 -1.01962
H 0.85857 12.5411 -2.08096
H 1.44472 13.0039 -0.365596
O 1.53752 11.0389 -0.741827
H 2.47109 11.178 -0.79582
H 8.74412 12.42 18.464
C 8.77074 13.3506 19.0307
H 8.35877 13.1607 20.0218
H 9.79599 13.6556 19.2408
O 8.02923 14.3169 18.3108
H 8.44652 14.4247 17.4696
H 4.88817 23.2383 15.6501
C 5.19536 23.4177 14.6198
H 4.27084 23.4082 14.0426
H 5.49243 24.4606 14.509
O 6.27386 22.5762 14.348
H 6.90177 22.5608 15.0545
H 15.7795 12.6334 1.75079
C 15.0952 11.9673 1.2252
H 15.7003 11.2083 0.729298
H 14.525 11.3665 1.93376
O 14.2686 12.5632 0.289551
H 14.1535 13.4274 0.653998
H 12.567 2.54291 6.95839
C 11.8427 2.88044 6.21704
H 12.3303 2.69644 5.25972
H 10.9619 2.23845 6.21631
O 11.4839 4.25877 6.45321
H 12.1247 4.83594 6.06622
H 9.8409 6.09129 12.9317
C 9.03954 5.70611 12.3011
H 9.32878 4.71291 11.9575
H 8.25415 5.593 13.0483
O 8.7772 6.54743 11.2221
H 9.54767 6.60584 10.6774
H 8.20265 -2.52901 3.40683
C 8.34522 -3.53255 3.80764
H 8.95774 -4.0123 3.04419
H 8.92494 -3.44404 4.72648
O 7.16534 -4.31206 3.95229
H 7.41205 -5.22413 3.93002
H 6.15925 14.1166 7.87479
C 5.29776 13.706 7.34806
H 4.73928 14.6273 7.18326
H 5.62475 13.211 6.43358
O 4.63158 12.7361 8.15376
H 5.31164 12.1483 8.4465
H 18.8685 11.9947 6.75909
C 18.7612 10.9111 6.8089
H 18.9761 10.6986 7.85617
H 17.7078 10.6315 6.80757
O 19.6358 10.2314 5.83123
H 20.5209 10.3804 6.12831
H 2.56531 20.2843 17.0836
C 2.09654 20.3737 18.0636
H 2.45188 19.6158 18.7618
H 2.45837 21.3447 18.4019
O 0.673546 20.3374 17.9644
H 0.244498 20.1085 18.7744
H 11.3578 -4.13242 14.7472
C 11.6694 -3.19122 15.2002
H 10.6938 -2.74665 15.3966
H 12.1495 -3.37259 16.1618
O 12.517 -2.43163 14.4581
H 12.5412 -1.61 14.9243
H 16.4335 14.0491 13.7414
C 16.1648 15.1053 13.761
H 16.1218 15.5319 12.7588
H 15.1994 15.249 14.2462
O 17.0608 15.7959 14.4656
H 17.9181 15.6367 14.1003
H 12.4226 1.86712 16.5421
C 12.7218 1.09062 15.8381
H 12.2533 1.23206 14.8642
H 13.8044 1.20789 15.788
O 12.3902 -0.201725 16.2455
H 12.7793 -0.272127 17.104
H 10.1854 5.03512 2.68149
C 9.38463 5.15092 1.951
H 8.97228 6.14882 1.802
H 9.88782 4.73329 1.0789
O 8.31944 4.28043 2.39176
H 8.07893 4.54105 3.26757
H -0.551429 16.51 8.39061
C -1.53413 16.5449 8.86108
H -1.50737 15.6249 9.44501
H -1.6227 17.347 9.59372
O -2.63596 16.5461 8.024
H -2.60359 17.3377 7.50889
H 8.33519 1.81651 17.2651
C 8.90967 2.58709 16.7511
H 9.60501 2.96355 17.5014
H 9.45474 2.14742 15.9157
O 8.17334 3.67562 16.2997
H 7.82261 4.13357 17.0481
H 6.55158 3.54136 10.4624
C 7.08634 2.5916 10.4626
H 6.63725 1.93085 9.72114
H 8.14382 2.73914 10.243
O 7.17515 1.96908 11.778
H 6.89167 2.5654 12.4538
H 13.5798 5.66613 13.257
C 14.1897 5.16812 12.5034
H 14.8214 4.41698 12.9777
H 13.5939 4.65871 11.7461
O 14.9306 6.19692 11.8255
H 15.8234 6.11585 12.1256
H 5.97642 -0.780621 16.7484
C 6.48391 -0.499098 15.8258
H 5.95097 0.317296 15.3385
H 7.46993 -0.122911 16.0987
O 6.64349 -1.56731 14.8477
H 7.06914 -1.15213 14.1129
H 18.978 30.2634 1.43214
C 18.9893 29.5968 2.29446
H 18.2053 28.893 2.01507
H 20.003 29.2124 2.40804
O 18.5434 30.296 3.40157
H 18.7712 29.8494 4.20276
H 8.74146 5.3011 6.35862
C 8.36524 4.86377 7.28347
H 9.06628 4.08272 7.57796
H 8.45254 5.54171 8.13252
O 7.02668 4.43358 7.22217
H 6.94911 3.71427 6.61428
H 11.3097 0.838149 19.637
C 10.2548 0.941785 19.8913
H 10.0524 0.393013 20.8111
H 9.93319 1.98304 19.911
O 9.37541 0.428649 18.873
H 9.438 -0.507008 18.756
H -0.695402 0.359203 8.80861
C -0.596448 1.07385 7.99156
H 0.0947279 1.84018 8.3426
H -0.240588 0.666046 7.0454
O -1.73141 1.70435 7.53394
H -2.03642 2.17078 8.29695
H 27.3216 9.60642 13.3845
C 26.7289 10.4968 13.1741
H 26.2526 10.8032 14.1054
H 27.4731 11.2511 12.9183
O 25.7908 10.2305 12.1324
H 25.3081 9.43414 12.2917
H 5.13005 4.46936 5.33622
C 4.30097 5.06725 5.71489
H 4.47455 6.14305 5.68941
H 3.41883 4.79246 5.13672
O 4.24652 4.80593 7.04357
H 5.08698 5.03614 7.41013
H 16.6022 6.01677 2.004
C 16.9839 6.77143 1.31634
H 17.8745 7.18703 1.78772
H 17.19 6.29348 0.358632
O 16.0312 7.65908 0.903256
H 16.365 8.05856 0.114378
H 11.4988 19.1638 4.97155
C 10.5447 18.6876 4.74523
H 9.77033 19.4545 4.75716
H 10.6591 18.1507 3.80359
O 10.1512 17.6727 5.68347
H 9.82195 17.9737 6.51637
H 5.4491 13.722 13.2467
C 4.82369 13.6506 12.3568
H 4.89957 12.5751 12.1967
H 3.80684 13.9821 12.5667
O 5.42923 14.3395 11.2852
H 6.31471 14.0802 11.0792
H 11.5775 4.39926 16.8218
C 11.771 5.24436 16.1612
H 12.8349 5.45279 16.0467
H 11.2966 5.13334 15.1862
O 11.0215 6.29865 16.7875
H 11.3882 7.11237 16.4764
H 6.65014 16.7305 5.96894
C 5.74591 17.2181 5.60441
H 5.20864 17.7671 6.37768
H 6.12402 17.9846 4.92785
O 5.00117 16.1743 5.04184
H 5.6829 15.5882 4.74963
H 10.1632 13.1838 3.89414
C 11.1163 12.8252 3.50553
H 11.7662 12.4234 4.28298
H 10.8794 11.9912 2.84487
O 11.6683 13.9151 2.65761
H 11.7217 14.7231 3.14475
H 7.61003 11.604 5.45752
C 7.5606 10.9419 4.59308
H 8.5578 10.5511 4.3902
H 6.88877 10.111 4.80816
O 7.0935 11.7054 3.46996
H 6.23872 11.9983 3.74537
H 0.650474 1.70682 12.5268
C 0.205893 0.82668 12.0622
H -0.558524 1.15137 11.3563
H 0.898062 0.32465 11.3861
O -0.418981 -0.0354838 12.9832
H -0.192645 -0.854131 12.5688
H 5.74444 7.80224 4.11328
C 6.36496 7.0314 3.65638
H 5.73518 6.19406 3.35597
H 6.81455 7.36193 2.72002
O 7.34259 6.44585 4.49567
H 7.96148 7.1275 4.70983
H 13.2521 10.4405 11.3219
C 13.7376 9.52052 11.6475
H 14.7372 9.77843 11.9974
H 13.1584 9.00807 12.4156
O 13.8251 8.64588 10.602
H 14.3372 7.90954 10.9002
H 12.9195 24.5687 2.69255
C 13.2382 24.2216 3.67541
H 12.4778 23.4606 3.8502
H 14.2687 23.8701 3.62274
O 13.1894 25.2717 4.59034
H 13.7835 25.9831 4.40475
H 18.4852 6.78331 23.8807
C 19.4737 6.34246 23.7529
H 19.5989 5.94417 24.7598
H 19.4542 5.50228 23.0588
O 20.5209 7.19828 23.273
H 20.609 7.99495 23.7737
H -4.8523 0.0258593 12.9521
C -3.77536 -0.000767966 13.1177
H -3.51878 -0.484671 14.0602
H -3.45384 -0.686524 12.3338
O -3.12389 1.23091 12.8659
H -2.1896 1.15216 12.7447
H 16.2566 7.82659 5.46935
C 15.7537 8.74511 5.16672
H 15.2809 9.11139 6.07792
H 16.5808 9.44104 5.02562
O 14.878 8.68 3.99793
H 15.3258 8.64757 3.16616
H -2.13865 2.62107 14.8029
C -1.72981 2.14041 15.6916
H -2.45016 1.78526 16.4285
H -1.15672 1.30174 15.2962
O -0.876011 3.13368 16.2545
H -0.237048 2.58061 16.6781
H 3.54053 8.17538 11.9001
C 2.62879 7.83299 11.4105
H 2.80802 7.92219 10.339
H 2.60092 6.74851 11.5165
O 1.38132 8.38177 11.8394
H 1.37853 9.3258 11.8822
H 3.28092 1.43929 2.88186
C 3.11338 0.387831 3.1153
H 2.06445 0.179075 2.90527
H 3.74059 -0.152464 2.40615
O 3.39937 0.2263 4.51073
H 3.9821 -0.512924 4.59727
H 3.50779 -0.0799978 8.6435
C 3.86552 0.759598 8.04756
H 4.78293 1.14301 8.49432
H 4.05204 0.495921 7.00649
O 2.96172 1.86083 8.08165
H 3.35608 2.45252 7.45896
H 4.87118 7.00855 9.27902
C 5.94789 6.95785 9.44045
H 6.35811 5.948 9.45042
H 6.46755 7.57278 8.70561
O 6.21397 7.39907 10.7162
H 7.13915 7.28615 10.8746
H 7.53281 13.3822 15.0052
C 8.34624 14.0513 14.7248
H 9.2305 13.4284 14.8605
H 8.3126 14.2463 13.6529
O 8.36791 15.2332 15.6097
H 7.73225 15.8546 15.2899
H 13.6002 2.59026 18.6672
C 13.8045 3.29835 19.4703
H 13.1189 3.16352 20.3067
H 14.7837 3.08647 19.8999
O 13.9532 4.66584 19.1526
H 14.7781 4.81341 18.7152
H 13.689 14.5684 11.1889
C 12.6681 14.2032 11.3009
H 12.3953 13.7946 10.3279
H 12.7273 13.3532 11.9806
O 11.8134 15.1852 11.8928
H 12.0466 15.4733 12.7622
H 16.2611 -4.61792 16.3565
C 16.4152 -5.63583 16.7146
H 17.4375 -5.9098 16.4539
H 16.4748 -5.5699 17.801
O 15.4758 -6.59242 16.3781
H 14.7224 -6.68917 16.9396
H 1.04338 13.7992 13.3757
C 0.374945 14.2375 12.6346
H 0.734988 14.0463 11.6237
H -0.669294 13.9261 12.611
O 0.594747 15.5761 12.857
H 1.47879 15.8261 12.6341
H 5.85184 19.0025 10.2821
C 5.73603 17.9192 10.2474
H 6.03483 17.4301 11.1746
H 4.67984 17.6531 10.2875
O 6.48987 17.394 9.16277
H 6.43798 16.4607 9.30152
H 20.4077 4.96864 7.80786
C 20.4108 5.7948 8.51888
H 20.4776 5.30205 9.48886
H 21.3062 6.39142 8.34406
O 19.2847 6.63036 8.43417
H 19.3097 7.06142 9.27477
H 6.82313 17.5924 20.6682
C 6.36528 17.3283 19.7149
H 5.4679 17.9309 19.5754
H 6.86717 17.4886 18.7607
O 6.08033 15.9435 19.6361
H 6.85453 15.5233 19.2931
H 4.37917 -2.59405 16.985
C 4.67549 -3.61995 16.7664
H 4.53108 -3.57476 15.6869
H 5.74368 -3.74211 16.9461
O 3.80155 -4.45681 17.37
H 4.18801 -4.55154 18.2273
H 5.7734 6.53019 -1.01433
C 6.16732 6.10003 -0.0935548
H 6.75519 6.88181 0.387493
H 5.32946 5.82102 0.545289
O 7.0896 4.9763 -0.337765
H 7.58491 4.75088 0.435084
H 2.74329 -0.924154 13.8434
C 3.43568 -1.72597 13.5871
H 4.38405 -1.20658 13.4491
H 3.45883 -2.51818 14.3354
O 3.0841 -2.28583 12.3671
H 3.84835 -2.3684 11.8169
H 15.5781 18.0716 2.28005
C 14.8392 18.5687 2.90872
H 15.1919 18.5679 3.94012
H 14.6837 19.5992 2.58928
O 13.6374 17.8131 2.6966
H 13.7237 16.9457 3.06162
H 11.9802 6.24919 10.5467
C 11.5746 6.43469 9.5521
H 12.3539 6.48426 8.79155
H 10.8415 5.71108 9.19585
O 10.9413 7.6705 9.68414
H 11.5935 8.29081 9.97297
H 11.1037 9.24861 2.15766
C 11.8265 9.02307 1.37366
H 12.1542 9.94583 0.894823
H 12.6941 8.52755 1.80957
O 11.3054 8.05083 0.490186
H 11.8838 7.96361 -0.252316
H 15.6679 13.3314 9.65839
C 16.1406 13.0902 10.6104
H 17.1289 12.6528 10.4682
H 16.2355 13.9709 11.2455
O 15.3053 12.213 11.3491
H 15.7451 11.9762 12.1516
H 1.2525 18.0654 5.23415
C 0.651494 17.1588 5.30574
H 0.612292 16.9972 6.38298
H -0.336748 17.3798 4.90263
O 1.2776 15.9934 4.75925
H 2.17886 15.991 5.04474
H 16.5019 8.1089 9.85303
C 16.414 8.69757 8.93988
H 17.3306 8.57333 8.36317
H 15.5799 8.37079 8.3189
O 16.2816 10.0348 9.1757
H 15.4745 10.1407 9.65515
H 9.87291 13.8261 6.33681
C 9.79125 14.3125 7.30886
H 10.6234 14.99 7.5006
H 8.97863 15.0198 7.14339
O 9.59329 13.3406 8.29438
H 10.4089 12.8651 8.34409
H 18.6518 7.62223 17.7321
C 18.1595 8.4344 17.1971
H 18.9353 8.97146 16.6512
H 17.5052 8.12424 16.3824
O 17.4127 9.37842 17.9667
H 18.1485 9.76629 18.4158
H 10.9932 15.7611 18.3098
C 11.1472 16.362 19.206
H 11.9051 15.9466 19.8703
H 11.4451 17.3382 18.8233
O 9.88051 16.4189 19.837
H 9.53652 15.5419 19.9096
H 4.10067 7.91647 1.65207
C 3.84754 8.80259 2.23417
H 2.93042 9.30414 1.92549
H 3.71151 8.46051 3.26011
O 4.92534 9.76292 2.20221
H 5.0091 10.0623 3.09465
H 18.2079 3.75084 2.01476
C 17.4977 2.95633 1.78565
H 16.5647 3.01084 2.34653
H 17.298 3.07379 0.720572
O 18.0864 1.70278 1.92968
H 18.2883 1.78328 2.84943
H 4.18263 3.69962 11.654
C 3.37542 2.96755 11.6806
H 3.7117 2.06531 11.1696
H 3.09616 2.65502 12.6867
O 2.13489 3.23064 11.0284
H 2.34862 3.25354 10.1081
H 14.1598 16.2167 9.77106
C 13.7501 17.2168 9.62927
H 14.6389 17.8225 9.80701
H 13.4891 17.2435 8.57134
O 12.5996 17.5055 10.3514
H 12.5166 16.7431 10.9034
H 9.46922 0.414286 9.92603
C 9.39556 0.532166 8.84492
H 8.63323 1.25452 8.5533
H 10.3859 0.911276 8.59226
O 9.10711 -0.62888 8.18377
H 8.28037 -1.00183 8.44787
H 0.966881 17.1848 -1.07993
C 0.363574 16.4548 -0.540209
H 0.742255 15.456 -0.757474
H 0.597635 16.7041 0.494764
O -1.01061 16.5834 -0.865514
H -0.992632 16.6081 -1.81003
H -4.0654 6.25324 16.6651
C -3.38561 5.48649 16.2937
H -3.97709 4.97079 15.5372
H -2.5349 6.00306 15.8491
O -2.85218 4.68636 17.2955
H -2.17082 4.12595 16.956
H 21.8212 5.16349 0.993241
C 20.9 5.04331 1.56339
H 20.2892 4.39634 0.933777
H 20.9624 4.64663 2.57673
O 20.3533 6.30519 1.56787
H 20.4571 6.69938 2.42048
H 3.3547 15.4726 9.34025
C 2.49369 15.4599 8.67187
H 1.73579 15.8508 9.35065
H 2.60831 16.1259 7.81666
O 2.1743 14.1159 8.30007
H 2.95188 13.68 7.98551
H 3.36089 13.5485 5.18007
C 3.04975 12.6867 4.58955
H 2.94721 11.9576 5.39326
H 2.12644 12.8551 4.03538
O 4.10398 12.361 3.70894
H 3.89469 12.7561 2.8765
H 7.43818 7.19572 14.7667
C 8.04277 7.44645 15.6383
H 7.90264 6.59141 16.2996
H 9.05857 7.51644 15.2491
O 7.63501 8.69568 16.2306
H 8.18299 8.90541 16.9717
H 5.67002 9.55936 7.01441
C 4.67728 9.72068 6.59406
H 4.8385 10.5544 5.91064
H 4.4224 8.79725 6.07407
O 3.62841 10.0217 7.52988
H 4.00333 10.7292 8.03206
H 4.96569 2.65762 20.7973
C 5.30413 2.37767 19.7998
H 6.37538 2.22944 19.9365
H 4.89995 1.3654 19.798
O 4.95146 3.26518 18.736
H 5.58309 3.9661 18.7935
H 23.7052 12.3934 -1.61037
C 24.0414 11.8262 -0.742454
H 25.0332 11.4316 -0.963375
H 24.2179 12.4668 0.121587
O 23.1973 10.8358 -0.360824
H 23.6138 10.4793 0.409083
H 10.4299 -0.133336 11.8158
C 9.96617 0.137308 12.7644
H 10.4602 -0.398378 13.5751
H 10.1576 1.20438 12.8777
O 8.58507 -0.230888 12.8184
H 8.15133 0.324244 12.1888
H 13.7744 9.20342 -3.00576
C 12.9219 9.29705 -3.67861
H 13.0057 10.2121 -4.26487
H 12.8544 8.40071 -4.29513
O 11.7735 9.28766 -2.97436
H 11.7449 10.0644 -2.43695
H 23.4405 8.2236 15.2847
C 22.9839 8.41317 16.2562
H 23.6664 8.63702 17.0761
H 22.3526 9.29841 16.1799
O 22.2375 7.25097 16.4817
H 21.8497 7.27243 17.343
H 8.52606 10.3278 20.6103
C 7.83975 9.76053 19.9815
H 7.34586 8.97492 20.5533
H 7.10229 10.466 19.5988
O 8.5791 9.24653 18.8728
H 9.35525 8.78602 19.1542
H 17.2208 14.7133 3.40266
C 17.2129 15.1561 2.40669
H 17.9099 15.9927 2.45611