LAMMPS data file. CGCMM style. atom_style full generated by VMD/TopoTools v1.5 on Fri Nov 03 12:58:43 -0500 2023
 60 atoms
 79 bonds
 138 angles
 243 dihedrals
 40 impropers
 1 atom types
 1 bond types
 1 angle types
 1 dihedral types
 1 improper types
 -0.500000 0.500000  xlo xhi
 -0.500000 0.500000  ylo yhi
 -0.500000 0.500000  zlo zhi

# Pair Coeffs
#
# 1  CA

# Bond Coeffs
#
# 1  CA-CA

# Angle Coeffs
#
# 1  CA-CA-CA

# Dihedral Coeffs
#
# 1  CA-CA-CA-CA

# Improper Coeffs
#
# 1  CA-CA-CA-CA

 Masses

 1 12.010700 # CA

 Atoms

1 1 1 0.000000 0.000000 0.000000 0.000000 # CA GRA
2 2 1 0.000000 -1.228024 0.709000 0.000000 # CA GRA
3 3 1 0.000000 -1.228024 2.127000 0.000000 # CA GRA
4 4 1 0.000000 0.000000 2.836000 0.000000 # CA GRA
5 5 1 0.000000 2.456048 0.000000 0.000000 # CA GRA
6 6 1 0.000000 1.228024 0.709000 0.000000 # CA GRA
7 7 1 0.000000 1.228024 2.127000 0.000000 # CA GRA
8 8 1 0.000000 2.456048 2.836000 0.000000 # CA GRA
9 9 1 0.000000 4.912096 0.000000 0.000000 # CA GRA
10 10 1 0.000000 3.684072 0.709000 0.000000 # CA GRA
11 11 1 0.000000 3.684072 2.127000 0.000000 # CA GRA
12 12 1 0.000000 4.912096 2.836000 0.000000 # CA GRA
13 13 1 0.000000 7.368144 0.000000 0.000000 # CA GRA
14 14 1 0.000000 6.140120 0.709000 0.000000 # CA GRA
15 15 1 0.000000 6.140120 2.127000 0.000000 # CA GRA
16 16 1 0.000000 7.368144 2.836000 0.000000 # CA GRA
17 17 1 0.000000 9.824192 0.000000 0.000000 # CA GRA
18 18 1 0.000000 8.596169 0.709000 0.000000 # CA GRA
19 19 1 0.000000 8.596169 2.127000 0.000000 # CA GRA
20 20 1 0.000000 9.824192 2.836000 0.000000 # CA GRA
21 21 1 0.000000 0.000000 4.254000 0.000000 # CA GRA
22 22 1 0.000000 -1.228024 4.963000 0.000000 # CA GRA
23 23 1 0.000000 -1.228024 6.381000 0.000000 # CA GRA
24 24 1 0.000000 0.000000 7.090000 0.000000 # CA GRA
25 25 1 0.000000 2.456048 4.254000 0.000000 # CA GRA
26 26 1 0.000000 1.228024 4.963000 0.000000 # CA GRA
27 27 1 0.000000 1.228024 6.381000 0.000000 # CA GRA
28 28 1 0.000000 2.456048 7.090000 0.000000 # CA GRA
29 29 1 0.000000 4.912096 4.254000 0.000000 # CA GRA
30 30 1 0.000000 3.684072 4.963000 0.000000 # CA GRA
31 31 1 0.000000 3.684072 6.381000 0.000000 # CA GRA
32 32 1 0.000000 4.912096 7.090000 0.000000 # CA GRA
33 33 1 0.000000 7.368144 4.254000 0.000000 # CA GRA
34 34 1 0.000000 6.140120 4.963000 0.000000 # CA GRA
35 35 1 0.000000 6.140120 6.381000 0.000000 # CA GRA
36 36 1 0.000000 7.368144 7.090000 0.000000 # CA GRA
37 37 1 0.000000 9.824192 4.254000 0.000000 # CA GRA
38 38 1 0.000000 8.596169 4.963000 0.000000 # CA GRA
39 39 1 0.000000 8.596169 6.381000 0.000000 # CA GRA
40 40 1 0.000000 9.824192 7.090000 0.000000 # CA GRA
41 41 1 0.000000 0.000000 8.508000 0.000000 # CA GRA
42 42 1 0.000000 -1.228024 9.217000 0.000000 # CA GRA
43 43 1 0.000000 -1.228024 10.635000 0.000000 # CA GRA
44 44 1 0.000000 0.000000 11.344000 0.000000 # CA GRA
45 45 1 0.000000 2.456048 8.508000 0.000000 # CA GRA
46 46 1 0.000000 1.228024 9.217000 0.000000 # CA GRA
47 47 1 0.000000 1.228024 10.635000 0.000000 # CA GRA
48 48 1 0.000000 2.456048 11.344000 0.000000 # CA GRA
49 49 1 0.000000 4.912096 8.508000 0.000000 # CA GRA
50 50 1 0.000000 3.684072 9.217000 0.000000 # CA GRA
51 51 1 0.000000 3.684072 10.635000 0.000000 # CA GRA
52 52 1 0.000000 4.912096 11.344000 0.000000 # CA GRA
53 53 1 0.000000 7.368144 8.508000 0.000000 # CA GRA
54 54 1 0.000000 6.140120 9.217000 0.000000 # CA GRA
55 55 1 0.000000 6.140120 10.635000 0.000000 # CA GRA
56 56 1 0.000000 7.368144 11.344000 0.000000 # CA GRA
57 57 1 0.000000 9.824192 8.508000 0.000000 # CA GRA
58 58 1 0.000000 8.596169 9.217000 0.000000 # CA GRA
59 59 1 0.000000 8.596169 10.635000 0.000000 # CA GRA
60 60 1 0.000000 9.824192 11.344000 0.000000 # CA GRA

 Bonds

1 1 1 2
2 1 1 6
3 1 2 3
4 1 3 4
5 1 4 7
6 1 4 21
7 1 5 6
8 1 5 10
9 1 6 7
10 1 7 8
11 1 8 11
12 1 8 25
13 1 9 14
14 1 9 10
15 1 10 11
16 1 11 12
17 1 12 15
18 1 12 29
19 1 13 18
20 1 13 14
21 1 14 15
22 1 15 16
23 1 16 19
24 1 16 33
25 1 17 18
26 1 18 19
27 1 19 20
28 1 20 37
29 1 21 22
30 1 21 26
31 1 22 23
32 1 23 24
33 1 24 27
34 1 24 41
35 1 25 26
36 1 25 30
37 1 26 27
38 1 27 28
39 1 28 31
40 1 28 45
41 1 29 34
42 1 29 30
43 1 30 31
44 1 31 32
45 1 32 35
46 1 32 49
47 1 33 34
48 1 33 38
49 1 34 35
50 1 35 36
51 1 36 39
52 1 36 53
53 1 37 38
54 1 38 39
55 1 39 40
56 1 40 57
57 1 41 42
58 1 41 46
59 1 42 43
60 1 43 44
61 1 44 47
62 1 45 46
63 1 45 50
64 1 46 47
65 1 47 48
66 1 48 51
67 1 49 54
68 1 49 50
69 1 50 51
70 1 51 52
71 1 52 55
72 1 53 58
73 1 53 54
74 1 54 55
75 1 55 56
76 1 56 59
77 1 57 58
78 1 58 59
79 1 59 60

 Angles

1 1 2 1 6
2 1 1 2 3
3 1 2 3 4
4 1 3 4 7
5 1 3 4 21
6 1 7 4 21
7 1 6 5 10
8 1 1 6 5
9 1 1 6 7
10 1 5 6 7
11 1 4 7 6
12 1 4 7 8
13 1 6 7 8
14 1 7 8 11
15 1 7 8 25
16 1 11 8 25
17 1 10 9 14
18 1 5 10 9
19 1 5 10 11
20 1 9 10 11
21 1 8 11 10
22 1 8 11 12
23 1 10 11 12
24 1 11 12 15
25 1 11 12 29
26 1 15 12 29
27 1 14 13 18
28 1 9 14 13
29 1 9 14 15
30 1 13 14 15
31 1 12 15 14
32 1 12 15 16
33 1 14 15 16
34 1 15 16 19
35 1 15 16 33
36 1 19 16 33
37 1 13 18 17
38 1 13 18 19
39 1 17 18 19
40 1 16 19 18
41 1 16 19 20
42 1 18 19 20
43 1 19 20 37
44 1 4 21 22
45 1 4 21 26
46 1 22 21 26
47 1 21 22 23
48 1 22 23 24
49 1 23 24 27
50 1 23 24 41
51 1 27 24 41
52 1 8 25 26
53 1 8 25 30
54 1 26 25 30
55 1 21 26 25
56 1 21 26 27
57 1 25 26 27
58 1 24 27 26
59 1 24 27 28
60 1 26 27 28
61 1 27 28 31
62 1 27 28 45
63 1 31 28 45
64 1 12 29 34
65 1 12 29 30
66 1 30 29 34
67 1 25 30 29
68 1 25 30 31
69 1 29 30 31
70 1 28 31 30
71 1 28 31 32
72 1 30 31 32
73 1 31 32 35
74 1 31 32 49
75 1 35 32 49
76 1 16 33 34
77 1 16 33 38
78 1 34 33 38
79 1 29 34 33
80 1 29 34 35
81 1 33 34 35
82 1 32 35 34
83 1 32 35 36
84 1 34 35 36
85 1 35 36 39
86 1 35 36 53
87 1 39 36 53
88 1 20 37 38
89 1 33 38 37
90 1 33 38 39
91 1 37 38 39
92 1 36 39 38
93 1 36 39 40
94 1 38 39 40
95 1 39 40 57
96 1 24 41 42
97 1 24 41 46
98 1 42 41 46
99 1 41 42 43
100 1 42 43 44
101 1 43 44 47
102 1 28 45 46
103 1 28 45 50
104 1 46 45 50
105 1 41 46 45
106 1 41 46 47
107 1 45 46 47
108 1 44 47 46
109 1 44 47 48
110 1 46 47 48
111 1 47 48 51
112 1 32 49 54
113 1 32 49 50
114 1 50 49 54
115 1 45 50 49
116 1 45 50 51
117 1 49 50 51
118 1 48 51 50
119 1 48 51 52
120 1 50 51 52
121 1 51 52 55
122 1 36 53 58
123 1 36 53 54
124 1 54 53 58
125 1 49 54 53
126 1 49 54 55
127 1 53 54 55
128 1 52 55 54
129 1 52 55 56
130 1 54 55 56
131 1 55 56 59
132 1 40 57 58
133 1 53 58 57
134 1 53 58 59
135 1 57 58 59
136 1 56 59 58
137 1 56 59 60
138 1 58 59 60

 Dihedrals

1 1 6 1 2 3
2 1 2 1 6 5
3 1 2 1 6 7
4 1 1 2 3 4
5 1 2 3 4 7
6 1 2 3 4 21
7 1 3 4 7 6
8 1 3 4 7 8
9 1 21 4 7 6
10 1 21 4 7 8
11 1 3 4 21 22
12 1 3 4 21 26
13 1 7 4 21 22
14 1 7 4 21 26
15 1 10 5 6 1
16 1 10 5 6 7
17 1 6 5 10 9
18 1 6 5 10 11
19 1 1 6 7 4
20 1 1 6 7 8
21 1 5 6 7 4
22 1 5 6 7 8
23 1 4 7 8 11
24 1 4 7 8 25
25 1 6 7 8 11
26 1 6 7 8 25
27 1 7 8 11 10
28 1 7 8 11 12
29 1 25 8 11 10
30 1 25 8 11 12
31 1 7 8 25 26
32 1 7 8 25 30
33 1 11 8 25 26
34 1 11 8 25 30
35 1 10 9 14 13
36 1 10 9 14 15
37 1 14 9 10 5
38 1 14 9 10 11
39 1 5 10 11 8
40 1 5 10 11 12
41 1 9 10 11 8
42 1 9 10 11 12
43 1 8 11 12 15
44 1 8 11 12 29
45 1 10 11 12 15
46 1 10 11 12 29
47 1 11 12 15 14
48 1 11 12 15 16
49 1 29 12 15 14
50 1 29 12 15 16
51 1 11 12 29 34
52 1 11 12 29 30
53 1 15 12 29 34
54 1 15 12 29 30
55 1 14 13 18 17
56 1 14 13 18 19
57 1 18 13 14 9
58 1 18 13 14 15
59 1 9 14 15 12
60 1 9 14 15 16
61 1 13 14 15 12
62 1 13 14 15 16
63 1 12 15 16 19
64 1 12 15 16 33
65 1 14 15 16 19
66 1 14 15 16 33
67 1 15 16 19 18
68 1 15 16 19 20
69 1 33 16 19 18
70 1 33 16 19 20
71 1 15 16 33 34
72 1 15 16 33 38
73 1 19 16 33 34
74 1 19 16 33 38
75 1 13 18 19 16
76 1 13 18 19 20
77 1 17 18 19 16
78 1 17 18 19 20
79 1 16 19 20 37
80 1 18 19 20 37
81 1 19 20 37 38
82 1 4 21 22 23
83 1 26 21 22 23
84 1 4 21 26 25
85 1 4 21 26 27
86 1 22 21 26 25
87 1 22 21 26 27
88 1 21 22 23 24
89 1 22 23 24 27
90 1 22 23 24 41
91 1 23 24 27 26
92 1 23 24 27 28
93 1 41 24 27 26
94 1 41 24 27 28
95 1 23 24 41 42
96 1 23 24 41 46
97 1 27 24 41 42
98 1 27 24 41 46
99 1 8 25 26 21
100 1 8 25 26 27
101 1 30 25 26 21
102 1 30 25 26 27
103 1 8 25 30 29
104 1 8 25 30 31
105 1 26 25 30 29
106 1 26 25 30 31
107 1 21 26 27 24
108 1 21 26 27 28
109 1 25 26 27 24
110 1 25 26 27 28
111 1 24 27 28 31
112 1 24 27 28 45
113 1 26 27 28 31
114 1 26 27 28 45
115 1 27 28 31 30
116 1 27 28 31 32
117 1 45 28 31 30
118 1 45 28 31 32
119 1 27 28 45 46
120 1 27 28 45 50
121 1 31 28 45 46
122 1 31 28 45 50
123 1 12 29 34 33
124 1 12 29 34 35
125 1 30 29 34 33
126 1 30 29 34 35
127 1 12 29 30 25
128 1 12 29 30 31
129 1 34 29 30 25
130 1 34 29 30 31
131 1 25 30 31 28
132 1 25 30 31 32
133 1 29 30 31 28
134 1 29 30 31 32
135 1 28 31 32 35
136 1 28 31 32 49
137 1 30 31 32 35
138 1 30 31 32 49
139 1 31 32 35 34
140 1 31 32 35 36
141 1 49 32 35 34
142 1 49 32 35 36
143 1 31 32 49 54
144 1 31 32 49 50
145 1 35 32 49 54
146 1 35 32 49 50
147 1 16 33 34 29
148 1 16 33 34 35
149 1 38 33 34 29
150 1 38 33 34 35
151 1 16 33 38 37
152 1 16 33 38 39
153 1 34 33 38 37
154 1 34 33 38 39
155 1 29 34 35 32
156 1 29 34 35 36
157 1 33 34 35 32
158 1 33 34 35 36
159 1 32 35 36 39
160 1 32 35 36 53
161 1 34 35 36 39
162 1 34 35 36 53
163 1 35 36 39 38
164 1 35 36 39 40
165 1 53 36 39 38
166 1 53 36 39 40
167 1 35 36 53 58
168 1 35 36 53 54
169 1 39 36 53 58
170 1 39 36 53 54
171 1 20 37 38 33
172 1 20 37 38 39
173 1 33 38 39 36
174 1 33 38 39 40
175 1 37 38 39 36
176 1 37 38 39 40
177 1 36 39 40 57
178 1 38 39 40 57
179 1 39 40 57 58
180 1 24 41 42 43
181 1 46 41 42 43
182 1 24 41 46 45
183 1 24 41 46 47
184 1 42 41 46 45
185 1 42 41 46 47
186 1 41 42 43 44
187 1 42 43 44 47
188 1 43 44 47 46
189 1 43 44 47 48
190 1 28 45 46 41
191 1 28 45 46 47
192 1 50 45 46 41
193 1 50 45 46 47
194 1 28 45 50 49
195 1 28 45 50 51
196 1 46 45 50 49
197 1 46 45 50 51
198 1 41 46 47 44
199 1 41 46 47 48
200 1 45 46 47 44
201 1 45 46 47 48
202 1 44 47 48 51
203 1 46 47 48 51
204 1 47 48 51 50
205 1 47 48 51 52
206 1 32 49 54 53
207 1 32 49 54 55
208 1 50 49 54 53
209 1 50 49 54 55
210 1 32 49 50 45
211 1 32 49 50 51
212 1 54 49 50 45
213 1 54 49 50 51
214 1 45 50 51 48
215 1 45 50 51 52
216 1 49 50 51 48
217 1 49 50 51 52
218 1 48 51 52 55
219 1 50 51 52 55
220 1 51 52 55 54
221 1 51 52 55 56
222 1 36 53 58 57
223 1 36 53 58 59
224 1 54 53 58 57
225 1 54 53 58 59
226 1 36 53 54 49
227 1 36 53 54 55
228 1 58 53 54 49
229 1 58 53 54 55
230 1 49 54 55 52
231 1 49 54 55 56
232 1 53 54 55 52
233 1 53 54 55 56
234 1 52 55 56 59
235 1 54 55 56 59
236 1 55 56 59 58
237 1 55 56 59 60
238 1 40 57 58 53
239 1 40 57 58 59
240 1 53 58 59 56
241 1 53 58 59 60
242 1 57 58 59 56
243 1 57 58 59 60

 Impropers

1 1 21 4 7 3
2 1 1 5 6 7
3 1 4 6 7 8
4 1 25 8 11 7
5 1 5 9 10 11
6 1 8 10 11 12
7 1 29 12 15 11
8 1 9 13 14 15
9 1 12 14 15 16
10 1 33 16 19 15
11 1 13 17 18 19
12 1 16 18 19 20
13 1 26 21 22 4
14 1 41 24 27 23
15 1 30 25 26 8
16 1 21 25 26 27
17 1 24 26 27 28
18 1 45 28 31 27
19 1 30 29 34 12
20 1 25 29 30 31
21 1 28 30 31 32
22 1 49 32 35 31
23 1 38 33 34 16
24 1 29 33 34 35
25 1 32 34 35 36
26 1 53 36 39 35
27 1 33 37 38 39
28 1 36 38 39 40
29 1 46 41 42 24
30 1 50 45 46 28
31 1 41 45 46 47
32 1 44 46 47 48
33 1 50 49 54 32
34 1 45 49 50 51
35 1 48 50 51 52
36 1 54 53 58 36
37 1 49 53 54 55
38 1 52 54 55 56
39 1 53 57 58 59
40 1 56 58 59 60

