LAMMPS data file. CGCMM style. atom_style full generated by VMD/TopoTools v1.5 on Fri Nov 03 16:16:34 -0500 2023
 180 atoms
 1 atom types
 -50.500000 50.500000  xlo xhi
 -50.500000 50.500000  ylo yhi
 -50.500000 50.500000  zlo zhi

# Pair Coeffs
#
# 1  CA


 Masses

 1 12.010700 # CA

 Atoms

1 1 1 0.000000 0.000000 0.000000 0.000000 # CA GRA
2 2 1 0.000000 -1.228024 0.709000 0.000000 # CA GRA
3 3 1 0.000000 -1.228024 2.127000 0.000000 # CA GRA
4 4 1 0.000000 0.000000 2.836000 0.000000 # CA GRA
5 5 1 0.000000 2.456048 0.000000 0.000000 # CA GRA
6 6 1 0.000000 1.228024 0.709000 0.000000 # CA GRA
7 7 1 0.000000 1.228024 2.127000 0.000000 # CA GRA
8 8 1 0.000000 2.456048 2.836000 0.000000 # CA GRA
9 9 1 0.000000 4.912096 0.000000 0.000000 # CA GRA
10 10 1 0.000000 3.684072 0.709000 0.000000 # CA GRA
11 11 1 0.000000 3.684072 2.127000 0.000000 # CA GRA
12 12 1 0.000000 4.912096 2.836000 0.000000 # CA GRA
13 13 1 0.000000 7.368144 0.000000 0.000000 # CA GRA
14 14 1 0.000000 6.140120 0.709000 0.000000 # CA GRA
15 15 1 0.000000 6.140120 2.127000 0.000000 # CA GRA
16 16 1 0.000000 7.368144 2.836000 0.000000 # CA GRA
17 17 1 0.000000 9.824192 0.000000 0.000000 # CA GRA
18 18 1 0.000000 8.596169 0.709000 0.000000 # CA GRA
19 19 1 0.000000 8.596169 2.127000 0.000000 # CA GRA
20 20 1 0.000000 9.824192 2.836000 0.000000 # CA GRA
21 21 1 0.000000 0.000000 4.254000 0.000000 # CA GRA
22 22 1 0.000000 -1.228024 4.963000 0.000000 # CA GRA
23 23 1 0.000000 -1.228024 6.381000 0.000000 # CA GRA
24 24 1 0.000000 0.000000 7.090000 0.000000 # CA GRA
25 25 1 0.000000 2.456048 4.254000 0.000000 # CA GRA
26 26 1 0.000000 1.228024 4.963000 0.000000 # CA GRA
27 27 1 0.000000 1.228024 6.381000 0.000000 # CA GRA
28 28 1 0.000000 2.456048 7.090000 0.000000 # CA GRA
29 29 1 0.000000 4.912096 4.254000 0.000000 # CA GRA
30 30 1 0.000000 3.684072 4.963000 0.000000 # CA GRA
31 31 1 0.000000 3.684072 6.381000 0.000000 # CA GRA
32 32 1 0.000000 4.912096 7.090000 0.000000 # CA GRA
33 33 1 0.000000 7.368144 4.254000 0.000000 # CA GRA
34 34 1 0.000000 6.140120 4.963000 0.000000 # CA GRA
35 35 1 0.000000 6.140120 6.381000 0.000000 # CA GRA
36 36 1 0.000000 7.368144 7.090000 0.000000 # CA GRA
37 37 1 0.000000 9.824192 4.254000 0.000000 # CA GRA
38 38 1 0.000000 8.596169 4.963000 0.000000 # CA GRA
39 39 1 0.000000 8.596169 6.381000 0.000000 # CA GRA
40 40 1 0.000000 9.824192 7.090000 0.000000 # CA GRA
41 41 1 0.000000 0.000000 8.508000 0.000000 # CA GRA
42 42 1 0.000000 -1.228024 9.217000 0.000000 # CA GRA
43 43 1 0.000000 -1.228024 10.635000 0.000000 # CA GRA
44 44 1 0.000000 0.000000 11.344000 0.000000 # CA GRA
45 45 1 0.000000 2.456048 8.508000 0.000000 # CA GRA
46 46 1 0.000000 1.228024 9.217000 0.000000 # CA GRA
47 47 1 0.000000 1.228024 10.635000 0.000000 # CA GRA
48 48 1 0.000000 2.456048 11.344000 0.000000 # CA GRA
49 49 1 0.000000 4.912096 8.508000 0.000000 # CA GRA
50 50 1 0.000000 3.684072 9.217000 0.000000 # CA GRA
51 51 1 0.000000 3.684072 10.635000 0.000000 # CA GRA
52 52 1 0.000000 4.912096 11.344000 0.000000 # CA GRA
53 53 1 0.000000 7.368144 8.508000 0.000000 # CA GRA
54 54 1 0.000000 6.140120 9.217000 0.000000 # CA GRA
55 55 1 0.000000 6.140120 10.635000 0.000000 # CA GRA
56 56 1 0.000000 7.368144 11.344000 0.000000 # CA GRA
57 57 1 0.000000 9.824192 8.508000 0.000000 # CA GRA
58 58 1 0.000000 8.596169 9.217000 0.000000 # CA GRA
59 59 1 0.000000 8.596169 10.635000 0.000000 # CA GRA
60 60 1 0.000000 9.824192 11.344000 0.000000 # CA GRA
61 61 1 0.000000 0.000000 1.418000 3.350000 # CA GRA
62 62 1 0.000000 -1.228024 2.127000 3.350000 # CA GRA
63 63 1 0.000000 -1.228024 3.545000 3.350000 # CA GRA
64 64 1 0.000000 0.000000 4.254000 3.350000 # CA GRA
65 65 1 0.000000 2.456048 1.418000 3.350000 # CA GRA
66 66 1 0.000000 1.228024 2.127000 3.350000 # CA GRA
67 67 1 0.000000 1.228024 3.545000 3.350000 # CA GRA
68 68 1 0.000000 2.456048 4.254000 3.350000 # CA GRA
69 69 1 0.000000 4.912096 1.418000 3.350000 # CA GRA
70 70 1 0.000000 3.684072 2.127000 3.350000 # CA GRA
71 71 1 0.000000 3.684072 3.545000 3.350000 # CA GRA
72 72 1 0.000000 4.912096 4.254000 3.350000 # CA GRA
73 73 1 0.000000 7.368144 1.418000 3.350000 # CA GRA
74 74 1 0.000000 6.140120 2.127000 3.350000 # CA GRA
75 75 1 0.000000 6.140120 3.545000 3.350000 # CA GRA
76 76 1 0.000000 7.368144 4.254000 3.350000 # CA GRA
77 77 1 0.000000 9.824192 1.418000 3.350000 # CA GRA
78 78 1 0.000000 8.596169 2.127000 3.350000 # CA GRA
79 79 1 0.000000 8.596169 3.545000 3.350000 # CA GRA
80 80 1 0.000000 9.824192 4.254000 3.350000 # CA GRA
81 81 1 0.000000 0.000000 5.672000 3.350000 # CA GRA
82 82 1 0.000000 -1.228024 6.381000 3.350000 # CA GRA
83 83 1 0.000000 -1.228024 7.799000 3.350000 # CA GRA
84 84 1 0.000000 0.000000 8.508000 3.350000 # CA GRA
85 85 1 0.000000 2.456048 5.672000 3.350000 # CA GRA
86 86 1 0.000000 1.228024 6.381000 3.350000 # CA GRA
87 87 1 0.000000 1.228024 7.799000 3.350000 # CA GRA
88 88 1 0.000000 2.456048 8.508000 3.350000 # CA GRA
89 89 1 0.000000 4.912096 5.672000 3.350000 # CA GRA
90 90 1 0.000000 3.684072 6.381000 3.350000 # CA GRA
91 91 1 0.000000 3.684072 7.799000 3.350000 # CA GRA
92 92 1 0.000000 4.912096 8.508000 3.350000 # CA GRA
93 93 1 0.000000 7.368144 5.672000 3.350000 # CA GRA
94 94 1 0.000000 6.140120 6.381000 3.350000 # CA GRA
95 95 1 0.000000 6.140120 7.799000 3.350000 # CA GRA
96 96 1 0.000000 7.368144 8.508000 3.350000 # CA GRA
97 97 1 0.000000 9.824192 5.672000 3.350000 # CA GRA
98 98 1 0.000000 8.596169 6.381000 3.350000 # CA GRA
99 99 1 0.000000 8.596169 7.799000 3.350000 # CA GRA
100 100 1 0.000000 9.824192 8.508000 3.350000 # CA GRA
101 101 1 0.000000 0.000000 9.926000 3.350000 # CA GRA
102 102 1 0.000000 -1.228024 10.635000 3.350000 # CA GRA
103 103 1 0.000000 -1.228024 12.053000 3.350000 # CA GRA
104 104 1 0.000000 0.000000 12.762000 3.350000 # CA GRA
105 105 1 0.000000 2.456048 9.926000 3.350000 # CA GRA
106 106 1 0.000000 1.228024 10.635000 3.350000 # CA GRA
107 107 1 0.000000 1.228024 12.053000 3.350000 # CA GRA
108 108 1 0.000000 2.456048 12.762000 3.350000 # CA GRA
109 109 1 0.000000 4.912096 9.926000 3.350000 # CA GRA
110 110 1 0.000000 3.684072 10.635000 3.350000 # CA GRA
111 111 1 0.000000 3.684072 12.053000 3.350000 # CA GRA
112 112 1 0.000000 4.912096 12.762000 3.350000 # CA GRA
113 113 1 0.000000 7.368144 9.926000 3.350000 # CA GRA
114 114 1 0.000000 6.140120 10.635000 3.350000 # CA GRA
115 115 1 0.000000 6.140120 12.053000 3.350000 # CA GRA
116 116 1 0.000000 7.368144 12.762000 3.350000 # CA GRA
117 117 1 0.000000 9.824192 9.926000 3.350000 # CA GRA
118 118 1 0.000000 8.596169 10.635000 3.350000 # CA GRA
119 119 1 0.000000 8.596169 12.053000 3.350000 # CA GRA
120 120 1 0.000000 9.824192 12.762000 3.350000 # CA GRA
121 121 1 0.000000 0.000000 0.000000 6.700000 # CA GRA
122 122 1 0.000000 -1.228024 0.709000 6.700000 # CA GRA
123 123 1 0.000000 -1.228024 2.127000 6.700000 # CA GRA
124 124 1 0.000000 0.000000 2.836000 6.700000 # CA GRA
125 125 1 0.000000 2.456048 0.000000 6.700000 # CA GRA
126 126 1 0.000000 1.228024 0.709000 6.700000 # CA GRA
127 127 1 0.000000 1.228024 2.127000 6.700000 # CA GRA
128 128 1 0.000000 2.456048 2.836000 6.700000 # CA GRA
129 129 1 0.000000 4.912096 0.000000 6.700000 # CA GRA
130 130 1 0.000000 3.684072 0.709000 6.700000 # CA GRA
131 131 1 0.000000 3.684072 2.127000 6.700000 # CA GRA
132 132 1 0.000000 4.912096 2.836000 6.700000 # CA GRA
133 133 1 0.000000 7.368144 0.000000 6.700000 # CA GRA
134 134 1 0.000000 6.140120 0.709000 6.700000 # CA GRA
135 135 1 0.000000 6.140120 2.127000 6.700000 # CA GRA
136 136 1 0.000000 7.368144 2.836000 6.700000 # CA GRA
137 137 1 0.000000 9.824192 0.000000 6.700000 # CA GRA
138 138 1 0.000000 8.596169 0.709000 6.700000 # CA GRA
139 139 1 0.000000 8.596169 2.127000 6.700000 # CA GRA
140 140 1 0.000000 9.824192 2.836000 6.700000 # CA GRA
141 141 1 0.000000 0.000000 4.254000 6.700000 # CA GRA
142 142 1 0.000000 -1.228024 4.963000 6.700000 # CA GRA
143 143 1 0.000000 -1.228024 6.381000 6.700000 # CA GRA
144 144 1 0.000000 0.000000 7.090000 6.700000 # CA GRA
145 145 1 0.000000 2.456048 4.254000 6.700000 # CA GRA
146 146 1 0.000000 1.228024 4.963000 6.700000 # CA GRA
147 147 1 0.000000 1.228024 6.381000 6.700000 # CA GRA
148 148 1 0.000000 2.456048 7.090000 6.700000 # CA GRA
149 149 1 0.000000 4.912096 4.254000 6.700000 # CA GRA
150 150 1 0.000000 3.684072 4.963000 6.700000 # CA GRA
151 151 1 0.000000 3.684072 6.381000 6.700000 # CA GRA
152 152 1 0.000000 4.912096 7.090000 6.700000 # CA GRA
153 153 1 0.000000 7.368144 4.254000 6.700000 # CA GRA
154 154 1 0.000000 6.140120 4.963000 6.700000 # CA GRA
155 155 1 0.000000 6.140120 6.381000 6.700000 # CA GRA
156 156 1 0.000000 7.368144 7.090000 6.700000 # CA GRA
157 157 1 0.000000 9.824192 4.254000 6.700000 # CA GRA
158 158 1 0.000000 8.596169 4.963000 6.700000 # CA GRA
159 159 1 0.000000 8.596169 6.381000 6.700000 # CA GRA
160 160 1 0.000000 9.824192 7.090000 6.700000 # CA GRA
161 161 1 0.000000 0.000000 8.508000 6.700000 # CA GRA
162 162 1 0.000000 -1.228024 9.217000 6.700000 # CA GRA
163 163 1 0.000000 -1.228024 10.635000 6.700000 # CA GRA
164 164 1 0.000000 0.000000 11.344000 6.700000 # CA GRA
165 165 1 0.000000 2.456048 8.508000 6.700000 # CA GRA
166 166 1 0.000000 1.228024 9.217000 6.700000 # CA GRA
167 167 1 0.000000 1.228024 10.635000 6.700000 # CA GRA
168 168 1 0.000000 2.456048 11.344000 6.700000 # CA GRA
169 169 1 0.000000 4.912096 8.508000 6.700000 # CA GRA
170 170 1 0.000000 3.684072 9.217000 6.700000 # CA GRA
171 171 1 0.000000 3.684072 10.635000 6.700000 # CA GRA
172 172 1 0.000000 4.912096 11.344000 6.700000 # CA GRA
173 173 1 0.000000 7.368144 8.508000 6.700000 # CA GRA
174 174 1 0.000000 6.140120 9.217000 6.700000 # CA GRA
175 175 1 0.000000 6.140120 10.635000 6.700000 # CA GRA
176 176 1 0.000000 7.368144 11.344000 6.700000 # CA GRA
177 177 1 0.000000 9.824192 8.508000 6.700000 # CA GRA
178 178 1 0.000000 8.596169 9.217000 6.700000 # CA GRA
179 179 1 0.000000 8.596169 10.635000 6.700000 # CA GRA
180 180 1 0.000000 9.824192 11.344000 6.700000 # CA GRA
