LAMMPS data file. CGCMM style. atom_style full generated by VMD/TopoTools v1.5 on Fri Nov 03 15:25:38 -0500 2023
 160 atoms
 219 bonds
 398 angles
 733 dihedrals
 120 impropers
 1 atom types
 1 bond types
 1 angle types
 1 dihedral types
 1 improper types
 -0.500000 0.500000  xlo xhi
 -0.500000 0.500000  ylo yhi
 -0.500000 0.500000  zlo zhi

# Pair Coeffs
#
# 1  CA

# Bond Coeffs
#
# 1  CA-CA

# Angle Coeffs
#
# 1  CA-CA-CA

# Dihedral Coeffs
#
# 1  CA-CA-CA-CA

# Improper Coeffs
#
# 1  CA-CA-CA-CA

 Masses

 1 12.010700 # CA

 Atoms

1 1 1 0.000000 0.000000 0.000000 0.000000 # CA GRA
2 2 1 0.000000 -1.228024 0.709000 0.000000 # CA GRA
3 3 1 0.000000 -1.228024 2.127000 0.000000 # CA GRA
4 4 1 0.000000 0.000000 2.836000 0.000000 # CA GRA
5 5 1 0.000000 2.456048 0.000000 0.000000 # CA GRA
6 6 1 0.000000 1.228024 0.709000 0.000000 # CA GRA
7 7 1 0.000000 1.228024 2.127000 0.000000 # CA GRA
8 8 1 0.000000 2.456048 2.836000 0.000000 # CA GRA
9 9 1 0.000000 4.912096 0.000000 0.000000 # CA GRA
10 10 1 0.000000 3.684072 0.709000 0.000000 # CA GRA
11 11 1 0.000000 3.684072 2.127000 0.000000 # CA GRA
12 12 1 0.000000 4.912096 2.836000 0.000000 # CA GRA
13 13 1 0.000000 7.368144 0.000000 0.000000 # CA GRA
14 14 1 0.000000 6.140120 0.709000 0.000000 # CA GRA
15 15 1 0.000000 6.140120 2.127000 0.000000 # CA GRA
16 16 1 0.000000 7.368144 2.836000 0.000000 # CA GRA
17 17 1 0.000000 9.824192 0.000000 0.000000 # CA GRA
18 18 1 0.000000 8.596169 0.709000 0.000000 # CA GRA
19 19 1 0.000000 8.596169 2.127000 0.000000 # CA GRA
20 20 1 0.000000 9.824192 2.836000 0.000000 # CA GRA
21 21 1 0.000000 0.000000 4.254000 0.000000 # CA GRA
22 22 1 0.000000 -1.228024 4.963000 0.000000 # CA GRA
23 23 1 0.000000 -1.228024 6.381000 0.000000 # CA GRA
24 24 1 0.000000 0.000000 7.090000 0.000000 # CA GRA
25 25 1 0.000000 2.456048 4.254000 0.000000 # CA GRA
26 26 1 0.000000 1.228024 4.963000 0.000000 # CA GRA
27 27 1 0.000000 1.228024 6.381000 0.000000 # CA GRA
28 28 1 0.000000 2.456048 7.090000 0.000000 # CA GRA
29 29 1 0.000000 4.912096 4.254000 0.000000 # CA GRA
30 30 1 0.000000 3.684072 4.963000 0.000000 # CA GRA
31 31 1 0.000000 3.684072 6.381000 0.000000 # CA GRA
32 32 1 0.000000 4.912096 7.090000 0.000000 # CA GRA
33 33 1 0.000000 7.368144 4.254000 0.000000 # CA GRA
34 34 1 0.000000 6.140120 4.963000 0.000000 # CA GRA
35 35 1 0.000000 6.140120 6.381000 0.000000 # CA GRA
36 36 1 0.000000 7.368144 7.090000 0.000000 # CA GRA
37 37 1 0.000000 9.824192 4.254000 0.000000 # CA GRA
38 38 1 0.000000 8.596169 4.963000 0.000000 # CA GRA
39 39 1 0.000000 8.596169 6.381000 0.000000 # CA GRA
40 40 1 0.000000 9.824192 7.090000 0.000000 # CA GRA
41 41 1 0.000000 0.000000 8.508000 0.000000 # CA GRA
42 42 1 0.000000 -1.228024 9.217000 0.000000 # CA GRA
43 43 1 0.000000 -1.228024 10.635000 0.000000 # CA GRA
44 44 1 0.000000 0.000000 11.344000 0.000000 # CA GRA
45 45 1 0.000000 2.456048 8.508000 0.000000 # CA GRA
46 46 1 0.000000 1.228024 9.217000 0.000000 # CA GRA
47 47 1 0.000000 1.228024 10.635000 0.000000 # CA GRA
48 48 1 0.000000 2.456048 11.344000 0.000000 # CA GRA
49 49 1 0.000000 4.912096 8.508000 0.000000 # CA GRA
50 50 1 0.000000 3.684072 9.217000 0.000000 # CA GRA
51 51 1 0.000000 3.684072 10.635000 0.000000 # CA GRA
52 52 1 0.000000 4.912096 11.344000 0.000000 # CA GRA
53 53 1 0.000000 7.368144 8.508000 0.000000 # CA GRA
54 54 1 0.000000 6.140120 9.217000 0.000000 # CA GRA
55 55 1 0.000000 6.140120 10.635000 0.000000 # CA GRA
56 56 1 0.000000 7.368144 11.344000 0.000000 # CA GRA
57 57 1 0.000000 9.824192 8.508000 0.000000 # CA GRA
58 58 1 0.000000 8.596169 9.217000 0.000000 # CA GRA
59 59 1 0.000000 8.596169 10.635000 0.000000 # CA GRA
60 60 1 0.000000 9.824192 11.344000 0.000000 # CA GRA
61 61 1 0.000000 0.000000 12.762000 0.000000 # CA GRA
62 62 1 0.000000 -1.228024 13.471000 0.000000 # CA GRA
63 63 1 0.000000 -1.228024 14.889000 0.000000 # CA GRA
64 64 1 0.000000 0.000000 15.598000 0.000000 # CA GRA
65 65 1 0.000000 2.456048 12.762000 0.000000 # CA GRA
66 66 1 0.000000 1.228024 13.471000 0.000000 # CA GRA
67 67 1 0.000000 1.228024 14.889000 0.000000 # CA GRA
68 68 1 0.000000 2.456048 15.598000 0.000000 # CA GRA
69 69 1 0.000000 4.912096 12.762000 0.000000 # CA GRA
70 70 1 0.000000 3.684072 13.471000 0.000000 # CA GRA
71 71 1 0.000000 3.684072 14.889000 0.000000 # CA GRA
72 72 1 0.000000 4.912096 15.598000 0.000000 # CA GRA
73 73 1 0.000000 7.368144 12.762000 0.000000 # CA GRA
74 74 1 0.000000 6.140120 13.471000 0.000000 # CA GRA
75 75 1 0.000000 6.140120 14.889000 0.000000 # CA GRA
76 76 1 0.000000 7.368144 15.598000 0.000000 # CA GRA
77 77 1 0.000000 9.824192 12.762000 0.000000 # CA GRA
78 78 1 0.000000 8.596169 13.471000 0.000000 # CA GRA
79 79 1 0.000000 8.596169 14.889000 0.000000 # CA GRA
80 80 1 0.000000 9.824192 15.598000 0.000000 # CA GRA
81 81 1 0.000000 0.000000 17.016001 0.000000 # CA GRA
82 82 1 0.000000 -1.228024 17.725000 0.000000 # CA GRA
83 83 1 0.000000 -1.228024 19.143000 0.000000 # CA GRA
84 84 1 0.000000 0.000000 19.851999 0.000000 # CA GRA
85 85 1 0.000000 2.456048 17.016001 0.000000 # CA GRA
86 86 1 0.000000 1.228024 17.725000 0.000000 # CA GRA
87 87 1 0.000000 1.228024 19.143000 0.000000 # CA GRA
88 88 1 0.000000 2.456048 19.851999 0.000000 # CA GRA
89 89 1 0.000000 4.912096 17.016001 0.000000 # CA GRA
90 90 1 0.000000 3.684072 17.725000 0.000000 # CA GRA
91 91 1 0.000000 3.684072 19.143000 0.000000 # CA GRA
92 92 1 0.000000 4.912096 19.851999 0.000000 # CA GRA
93 93 1 0.000000 7.368144 17.016001 0.000000 # CA GRA
94 94 1 0.000000 6.140120 17.725000 0.000000 # CA GRA
95 95 1 0.000000 6.140120 19.143000 0.000000 # CA GRA
96 96 1 0.000000 7.368144 19.851999 0.000000 # CA GRA
97 97 1 0.000000 9.824192 17.016001 0.000000 # CA GRA
98 98 1 0.000000 8.596169 17.725000 0.000000 # CA GRA
99 99 1 0.000000 8.596169 19.143000 0.000000 # CA GRA
100 100 1 0.000000 9.824192 19.851999 0.000000 # CA GRA
101 101 1 0.000000 0.000000 21.270000 0.000000 # CA GRA
102 102 1 0.000000 -1.228024 21.979000 0.000000 # CA GRA
103 103 1 0.000000 -1.228024 23.396999 0.000000 # CA GRA
104 104 1 0.000000 0.000000 24.106001 0.000000 # CA GRA
105 105 1 0.000000 2.456048 21.270000 0.000000 # CA GRA
106 106 1 0.000000 1.228024 21.979000 0.000000 # CA GRA
107 107 1 0.000000 1.228024 23.396999 0.000000 # CA GRA
108 108 1 0.000000 2.456048 24.106001 0.000000 # CA GRA
109 109 1 0.000000 4.912096 21.270000 0.000000 # CA GRA
110 110 1 0.000000 3.684072 21.979000 0.000000 # CA GRA
111 111 1 0.000000 3.684072 23.396999 0.000000 # CA GRA
112 112 1 0.000000 4.912096 24.106001 0.000000 # CA GRA
113 113 1 0.000000 7.368144 21.270000 0.000000 # CA GRA
114 114 1 0.000000 6.140120 21.979000 0.000000 # CA GRA
115 115 1 0.000000 6.140120 23.396999 0.000000 # CA GRA
116 116 1 0.000000 7.368144 24.106001 0.000000 # CA GRA
117 117 1 0.000000 9.824192 21.270000 0.000000 # CA GRA
118 118 1 0.000000 8.596169 21.979000 0.000000 # CA GRA
119 119 1 0.000000 8.596169 23.396999 0.000000 # CA GRA
120 120 1 0.000000 9.824192 24.106001 0.000000 # CA GRA
121 121 1 0.000000 0.000000 25.524000 0.000000 # CA GRA
122 122 1 0.000000 -1.228024 26.233000 0.000000 # CA GRA
123 123 1 0.000000 -1.228024 27.650999 0.000000 # CA GRA
124 124 1 0.000000 0.000000 28.360001 0.000000 # CA GRA
125 125 1 0.000000 2.456048 25.524000 0.000000 # CA GRA
126 126 1 0.000000 1.228024 26.233000 0.000000 # CA GRA
127 127 1 0.000000 1.228024 27.650999 0.000000 # CA GRA
128 128 1 0.000000 2.456048 28.360001 0.000000 # CA GRA
129 129 1 0.000000 4.912096 25.524000 0.000000 # CA GRA
130 130 1 0.000000 3.684072 26.233000 0.000000 # CA GRA
131 131 1 0.000000 3.684072 27.650999 0.000000 # CA GRA
132 132 1 0.000000 4.912096 28.360001 0.000000 # CA GRA
133 133 1 0.000000 7.368144 25.524000 0.000000 # CA GRA
134 134 1 0.000000 6.140120 26.233000 0.000000 # CA GRA
135 135 1 0.000000 6.140120 27.650999 0.000000 # CA GRA
136 136 1 0.000000 7.368144 28.360001 0.000000 # CA GRA
137 137 1 0.000000 9.824192 25.524000 0.000000 # CA GRA
138 138 1 0.000000 8.596169 26.233000 0.000000 # CA GRA
139 139 1 0.000000 8.596169 27.650999 0.000000 # CA GRA
140 140 1 0.000000 9.824192 28.360001 0.000000 # CA GRA
141 141 1 0.000000 0.000000 29.778000 0.000000 # CA GRA
142 142 1 0.000000 -1.228024 30.487000 0.000000 # CA GRA
143 143 1 0.000000 -1.228024 31.905001 0.000000 # CA GRA
144 144 1 0.000000 0.000000 32.613998 0.000000 # CA GRA
145 145 1 0.000000 2.456048 29.778000 0.000000 # CA GRA
146 146 1 0.000000 1.228024 30.487000 0.000000 # CA GRA
147 147 1 0.000000 1.228024 31.905001 0.000000 # CA GRA
148 148 1 0.000000 2.456048 32.613998 0.000000 # CA GRA
149 149 1 0.000000 4.912096 29.778000 0.000000 # CA GRA
150 150 1 0.000000 3.684072 30.487000 0.000000 # CA GRA
151 151 1 0.000000 3.684072 31.905001 0.000000 # CA GRA
152 152 1 0.000000 4.912096 32.613998 0.000000 # CA GRA
153 153 1 0.000000 7.368144 29.778000 0.000000 # CA GRA
154 154 1 0.000000 6.140120 30.487000 0.000000 # CA GRA
155 155 1 0.000000 6.140120 31.905001 0.000000 # CA GRA
156 156 1 0.000000 7.368144 32.613998 0.000000 # CA GRA
157 157 1 0.000000 9.824192 29.778000 0.000000 # CA GRA
158 158 1 0.000000 8.596169 30.487000 0.000000 # CA GRA
159 159 1 0.000000 8.596169 31.905001 0.000000 # CA GRA
160 160 1 0.000000 9.824192 32.613998 0.000000 # CA GRA

 Bonds

1 1 1 2
2 1 1 6
3 1 2 3
4 1 3 4
5 1 4 7
6 1 4 21
7 1 5 6
8 1 5 10
9 1 6 7
10 1 7 8
11 1 8 11
12 1 8 25
13 1 9 14
14 1 9 10
15 1 10 11
16 1 11 12
17 1 12 15
18 1 12 29
19 1 13 18
20 1 13 14
21 1 14 15
22 1 15 16
23 1 16 19
24 1 16 33
25 1 17 18
26 1 18 19
27 1 19 20
28 1 20 37
29 1 21 22
30 1 21 26
31 1 22 23
32 1 23 24
33 1 24 27
34 1 24 41
35 1 25 26
36 1 25 30
37 1 26 27
38 1 27 28
39 1 28 31
40 1 28 45
41 1 29 34
42 1 29 30
43 1 30 31
44 1 31 32
45 1 32 35
46 1 32 49
47 1 33 34
48 1 33 38
49 1 34 35
50 1 35 36
51 1 36 39
52 1 36 53
53 1 37 38
54 1 38 39
55 1 39 40
56 1 40 57
57 1 41 42
58 1 41 46
59 1 42 43
60 1 43 44
61 1 44 47
62 1 44 61
63 1 45 46
64 1 45 50
65 1 46 47
66 1 47 48
67 1 48 51
68 1 48 65
69 1 49 54
70 1 49 50
71 1 50 51
72 1 51 52
73 1 52 55
74 1 52 69
75 1 53 58
76 1 53 54
77 1 54 55
78 1 55 56
79 1 56 59
80 1 56 73
81 1 57 58
82 1 58 59
83 1 59 60
84 1 60 77
85 1 61 62
86 1 61 66
87 1 62 63
88 1 63 64
89 1 64 67
90 1 64 81
91 1 65 66
92 1 65 70
93 1 66 67
94 1 67 68
95 1 68 71
96 1 68 85
97 1 69 74
98 1 69 70
99 1 70 71
100 1 71 72
101 1 72 75
102 1 72 89
103 1 73 74
104 1 73 78
105 1 74 75
106 1 75 76
107 1 76 79
108 1 76 93
109 1 77 78
110 1 78 79
111 1 79 80
112 1 80 97
113 1 81 82
114 1 81 86
115 1 82 83
116 1 83 84
117 1 84 87
118 1 84 101
119 1 85 86
120 1 85 90
121 1 86 87
122 1 87 88
123 1 88 91
124 1 88 105
125 1 89 94
126 1 89 90
127 1 90 91
128 1 91 92
129 1 92 95
130 1 92 109
131 1 93 98
132 1 93 94
133 1 94 95
134 1 95 96
135 1 96 99
136 1 96 113
137 1 97 98
138 1 98 99
139 1 99 100
140 1 100 117
141 1 101 102
142 1 101 106
143 1 102 103
144 1 103 104
145 1 104 107
146 1 104 121
147 1 105 106
148 1 105 110
149 1 106 107
150 1 107 108
151 1 108 111
152 1 108 125
153 1 109 114
154 1 109 110
155 1 110 111
156 1 111 112
157 1 112 115
158 1 112 129
159 1 113 114
160 1 113 118
161 1 114 115
162 1 115 116
163 1 116 119
164 1 116 133
165 1 117 118
166 1 118 119
167 1 119 120
168 1 120 137
169 1 121 122
170 1 121 126
171 1 122 123
172 1 123 124
173 1 124 127
174 1 124 141
175 1 125 126
176 1 125 130
177 1 126 127
178 1 127 128
179 1 128 131
180 1 128 145
181 1 129 134
182 1 129 130
183 1 130 131
184 1 131 132
185 1 132 135
186 1 132 149
187 1 133 138
188 1 133 134
189 1 134 135
190 1 135 136
191 1 136 139
192 1 136 153
193 1 137 138
194 1 138 139
195 1 139 140
196 1 140 157
197 1 141 142
198 1 141 146
199 1 142 143
200 1 143 144
201 1 144 147
202 1 145 146
203 1 145 150
204 1 146 147
205 1 147 148
206 1 148 151
207 1 149 154
208 1 149 150
209 1 150 151
210 1 151 152
211 1 152 155
212 1 153 154
213 1 153 158
214 1 154 155
215 1 155 156
216 1 156 159
217 1 157 158
218 1 158 159
219 1 159 160

 Angles

1 1 2 1 6
2 1 1 2 3
3 1 2 3 4
4 1 3 4 7
5 1 3 4 21
6 1 7 4 21
7 1 6 5 10
8 1 1 6 5
9 1 1 6 7
10 1 5 6 7
11 1 4 7 6
12 1 4 7 8
13 1 6 7 8
14 1 7 8 11
15 1 7 8 25
16 1 11 8 25
17 1 10 9 14
18 1 5 10 9
19 1 5 10 11
20 1 9 10 11
21 1 8 11 10
22 1 8 11 12
23 1 10 11 12
24 1 11 12 15
25 1 11 12 29
26 1 15 12 29
27 1 14 13 18
28 1 9 14 13
29 1 9 14 15
30 1 13 14 15
31 1 12 15 14
32 1 12 15 16
33 1 14 15 16
34 1 15 16 19
35 1 15 16 33
36 1 19 16 33
37 1 13 18 17
38 1 13 18 19
39 1 17 18 19
40 1 16 19 18
41 1 16 19 20
42 1 18 19 20
43 1 19 20 37
44 1 4 21 22
45 1 4 21 26
46 1 22 21 26
47 1 21 22 23
48 1 22 23 24
49 1 23 24 27
50 1 23 24 41
51 1 27 24 41
52 1 8 25 26
53 1 8 25 30
54 1 26 25 30
55 1 21 26 25
56 1 21 26 27
57 1 25 26 27
58 1 24 27 26
59 1 24 27 28
60 1 26 27 28
61 1 27 28 31
62 1 27 28 45
63 1 31 28 45
64 1 12 29 34
65 1 12 29 30
66 1 30 29 34
67 1 25 30 29
68 1 25 30 31
69 1 29 30 31
70 1 28 31 30
71 1 28 31 32
72 1 30 31 32
73 1 31 32 35
74 1 31 32 49
75 1 35 32 49
76 1 16 33 34
77 1 16 33 38
78 1 34 33 38
79 1 29 34 33
80 1 29 34 35
81 1 33 34 35
82 1 32 35 34
83 1 32 35 36
84 1 34 35 36
85 1 35 36 39
86 1 35 36 53
87 1 39 36 53
88 1 20 37 38
89 1 33 38 37
90 1 33 38 39
91 1 37 38 39
92 1 36 39 38
93 1 36 39 40
94 1 38 39 40
95 1 39 40 57
96 1 24 41 42
97 1 24 41 46
98 1 42 41 46
99 1 41 42 43
100 1 42 43 44
101 1 43 44 47
102 1 43 44 61
103 1 47 44 61
104 1 28 45 46
105 1 28 45 50
106 1 46 45 50
107 1 41 46 45
108 1 41 46 47
109 1 45 46 47
110 1 44 47 46
111 1 44 47 48
112 1 46 47 48
113 1 47 48 51
114 1 47 48 65
115 1 51 48 65
116 1 32 49 54
117 1 32 49 50
118 1 50 49 54
119 1 45 50 49
120 1 45 50 51
121 1 49 50 51
122 1 48 51 50
123 1 48 51 52
124 1 50 51 52
125 1 51 52 55
126 1 51 52 69
127 1 55 52 69
128 1 36 53 58
129 1 36 53 54
130 1 54 53 58
131 1 49 54 53
132 1 49 54 55
133 1 53 54 55
134 1 52 55 54
135 1 52 55 56
136 1 54 55 56
137 1 55 56 59
138 1 55 56 73
139 1 59 56 73
140 1 40 57 58
141 1 53 58 57
142 1 53 58 59
143 1 57 58 59
144 1 56 59 58
145 1 56 59 60
146 1 58 59 60
147 1 59 60 77
148 1 44 61 62
149 1 44 61 66
150 1 62 61 66
151 1 61 62 63
152 1 62 63 64
153 1 63 64 67
154 1 63 64 81
155 1 67 64 81
156 1 48 65 66
157 1 48 65 70
158 1 66 65 70
159 1 61 66 65
160 1 61 66 67
161 1 65 66 67
162 1 64 67 66
163 1 64 67 68
164 1 66 67 68
165 1 67 68 71
166 1 67 68 85
167 1 71 68 85
168 1 52 69 74
169 1 52 69 70
170 1 70 69 74
171 1 65 70 69
172 1 65 70 71
173 1 69 70 71
174 1 68 71 70
175 1 68 71 72
176 1 70 71 72
177 1 71 72 75
178 1 71 72 89
179 1 75 72 89
180 1 56 73 74
181 1 56 73 78
182 1 74 73 78
183 1 69 74 73
184 1 69 74 75
185 1 73 74 75
186 1 72 75 74
187 1 72 75 76
188 1 74 75 76
189 1 75 76 79
190 1 75 76 93
191 1 79 76 93
192 1 60 77 78
193 1 73 78 77
194 1 73 78 79
195 1 77 78 79
196 1 76 79 78
197 1 76 79 80
198 1 78 79 80
199 1 79 80 97
200 1 64 81 82
201 1 64 81 86
202 1 82 81 86
203 1 81 82 83
204 1 82 83 84
205 1 83 84 87
206 1 83 84 101
207 1 87 84 101
208 1 68 85 86
209 1 68 85 90
210 1 86 85 90
211 1 81 86 85
212 1 81 86 87
213 1 85 86 87
214 1 84 87 86
215 1 84 87 88
216 1 86 87 88
217 1 87 88 91
218 1 87 88 105
219 1 91 88 105
220 1 72 89 94
221 1 72 89 90
222 1 90 89 94
223 1 85 90 89
224 1 85 90 91
225 1 89 90 91
226 1 88 91 90
227 1 88 91 92
228 1 90 91 92
229 1 91 92 95
230 1 91 92 109
231 1 95 92 109
232 1 76 93 98
233 1 76 93 94
234 1 94 93 98
235 1 89 94 93
236 1 89 94 95
237 1 93 94 95
238 1 92 95 94
239 1 92 95 96
240 1 94 95 96
241 1 95 96 99
242 1 95 96 113
243 1 99 96 113
244 1 80 97 98
245 1 93 98 97
246 1 93 98 99
247 1 97 98 99
248 1 96 99 98
249 1 96 99 100
250 1 98 99 100
251 1 99 100 117
252 1 84 101 102
253 1 84 101 106
254 1 102 101 106
255 1 101 102 103
256 1 102 103 104
257 1 103 104 107
258 1 103 104 121
259 1 107 104 121
260 1 88 105 106
261 1 88 105 110
262 1 106 105 110
263 1 101 106 105
264 1 101 106 107
265 1 105 106 107
266 1 104 107 106
267 1 104 107 108
268 1 106 107 108
269 1 107 108 111
270 1 107 108 125
271 1 111 108 125
272 1 92 109 114
273 1 92 109 110
274 1 110 109 114
275 1 105 110 109
276 1 105 110 111
277 1 109 110 111
278 1 108 111 110
279 1 108 111 112
280 1 110 111 112
281 1 111 112 115
282 1 111 112 129
283 1 115 112 129
284 1 96 113 114
285 1 96 113 118
286 1 114 113 118
287 1 109 114 113
288 1 109 114 115
289 1 113 114 115
290 1 112 115 114
291 1 112 115 116
292 1 114 115 116
293 1 115 116 119
294 1 115 116 133
295 1 119 116 133
296 1 100 117 118
297 1 113 118 117
298 1 113 118 119
299 1 117 118 119
300 1 116 119 118
301 1 116 119 120
302 1 118 119 120
303 1 119 120 137
304 1 104 121 122
305 1 104 121 126
306 1 122 121 126
307 1 121 122 123
308 1 122 123 124
309 1 123 124 127
310 1 123 124 141
311 1 127 124 141
312 1 108 125 126
313 1 108 125 130
314 1 126 125 130
315 1 121 126 125
316 1 121 126 127
317 1 125 126 127
318 1 124 127 126
319 1 124 127 128
320 1 126 127 128
321 1 127 128 131
322 1 127 128 145
323 1 131 128 145
324 1 112 129 134
325 1 112 129 130
326 1 130 129 134
327 1 125 130 129
328 1 125 130 131
329 1 129 130 131
330 1 128 131 130
331 1 128 131 132
332 1 130 131 132
333 1 131 132 135
334 1 131 132 149
335 1 135 132 149
336 1 116 133 138
337 1 116 133 134
338 1 134 133 138
339 1 129 134 133
340 1 129 134 135
341 1 133 134 135
342 1 132 135 134
343 1 132 135 136
344 1 134 135 136
345 1 135 136 139
346 1 135 136 153
347 1 139 136 153
348 1 120 137 138
349 1 133 138 137
350 1 133 138 139
351 1 137 138 139
352 1 136 139 138
353 1 136 139 140
354 1 138 139 140
355 1 139 140 157
356 1 124 141 142
357 1 124 141 146
358 1 142 141 146
359 1 141 142 143
360 1 142 143 144
361 1 143 144 147
362 1 128 145 146
363 1 128 145 150
364 1 146 145 150
365 1 141 146 145
366 1 141 146 147
367 1 145 146 147
368 1 144 147 146
369 1 144 147 148
370 1 146 147 148
371 1 147 148 151
372 1 132 149 154
373 1 132 149 150
374 1 150 149 154
375 1 145 150 149
376 1 145 150 151
377 1 149 150 151
378 1 148 151 150
379 1 148 151 152
380 1 150 151 152
381 1 151 152 155
382 1 136 153 154
383 1 136 153 158
384 1 154 153 158
385 1 149 154 153
386 1 149 154 155
387 1 153 154 155
388 1 152 155 154
389 1 152 155 156
390 1 154 155 156
391 1 155 156 159
392 1 140 157 158
393 1 153 158 157
394 1 153 158 159
395 1 157 158 159
396 1 156 159 158
397 1 156 159 160
398 1 158 159 160

 Dihedrals

1 1 6 1 2 3
2 1 2 1 6 5
3 1 2 1 6 7
4 1 1 2 3 4
5 1 2 3 4 7
6 1 2 3 4 21
7 1 3 4 7 6
8 1 3 4 7 8
9 1 21 4 7 6
10 1 21 4 7 8
11 1 3 4 21 22
12 1 3 4 21 26
13 1 7 4 21 22
14 1 7 4 21 26
15 1 10 5 6 1
16 1 10 5 6 7
17 1 6 5 10 9
18 1 6 5 10 11
19 1 1 6 7 4
20 1 1 6 7 8
21 1 5 6 7 4
22 1 5 6 7 8
23 1 4 7 8 11
24 1 4 7 8 25
25 1 6 7 8 11
26 1 6 7 8 25
27 1 7 8 11 10
28 1 7 8 11 12
29 1 25 8 11 10
30 1 25 8 11 12
31 1 7 8 25 26
32 1 7 8 25 30
33 1 11 8 25 26
34 1 11 8 25 30
35 1 10 9 14 13
36 1 10 9 14 15
37 1 14 9 10 5
38 1 14 9 10 11
39 1 5 10 11 8
40 1 5 10 11 12
41 1 9 10 11 8
42 1 9 10 11 12
43 1 8 11 12 15
44 1 8 11 12 29
45 1 10 11 12 15
46 1 10 11 12 29
47 1 11 12 15 14
48 1 11 12 15 16
49 1 29 12 15 14
50 1 29 12 15 16
51 1 11 12 29 34
52 1 11 12 29 30
53 1 15 12 29 34
54 1 15 12 29 30
55 1 14 13 18 17
56 1 14 13 18 19
57 1 18 13 14 9
58 1 18 13 14 15
59 1 9 14 15 12
60 1 9 14 15 16
61 1 13 14 15 12
62 1 13 14 15 16
63 1 12 15 16 19
64 1 12 15 16 33
65 1 14 15 16 19
66 1 14 15 16 33
67 1 15 16 19 18
68 1 15 16 19 20
69 1 33 16 19 18
70 1 33 16 19 20
71 1 15 16 33 34
72 1 15 16 33 38
73 1 19 16 33 34
74 1 19 16 33 38
75 1 13 18 19 16
76 1 13 18 19 20
77 1 17 18 19 16
78 1 17 18 19 20
79 1 16 19 20 37
80 1 18 19 20 37
81 1 19 20 37 38
82 1 4 21 22 23
83 1 26 21 22 23
84 1 4 21 26 25
85 1 4 21 26 27
86 1 22 21 26 25
87 1 22 21 26 27
88 1 21 22 23 24
89 1 22 23 24 27
90 1 22 23 24 41
91 1 23 24 27 26
92 1 23 24 27 28
93 1 41 24 27 26
94 1 41 24 27 28
95 1 23 24 41 42
96 1 23 24 41 46
97 1 27 24 41 42
98 1 27 24 41 46
99 1 8 25 26 21
100 1 8 25 26 27
101 1 30 25 26 21
102 1 30 25 26 27
103 1 8 25 30 29
104 1 8 25 30 31
105 1 26 25 30 29
106 1 26 25 30 31
107 1 21 26 27 24
108 1 21 26 27 28
109 1 25 26 27 24
110 1 25 26 27 28
111 1 24 27 28 31
112 1 24 27 28 45
113 1 26 27 28 31
114 1 26 27 28 45
115 1 27 28 31 30
116 1 27 28 31 32
117 1 45 28 31 30
118 1 45 28 31 32
119 1 27 28 45 46
120 1 27 28 45 50
121 1 31 28 45 46
122 1 31 28 45 50
123 1 12 29 34 33
124 1 12 29 34 35
125 1 30 29 34 33
126 1 30 29 34 35
127 1 12 29 30 25
128 1 12 29 30 31
129 1 34 29 30 25
130 1 34 29 30 31
131 1 25 30 31 28
132 1 25 30 31 32
133 1 29 30 31 28
134 1 29 30 31 32
135 1 28 31 32 35
136 1 28 31 32 49
137 1 30 31 32 35
138 1 30 31 32 49
139 1 31 32 35 34
140 1 31 32 35 36
141 1 49 32 35 34
142 1 49 32 35 36
143 1 31 32 49 54
144 1 31 32 49 50
145 1 35 32 49 54
146 1 35 32 49 50
147 1 16 33 34 29
148 1 16 33 34 35
149 1 38 33 34 29
150 1 38 33 34 35
151 1 16 33 38 37
152 1 16 33 38 39
153 1 34 33 38 37
154 1 34 33 38 39
155 1 29 34 35 32
156 1 29 34 35 36
157 1 33 34 35 32
158 1 33 34 35 36
159 1 32 35 36 39
160 1 32 35 36 53
161 1 34 35 36 39
162 1 34 35 36 53
163 1 35 36 39 38
164 1 35 36 39 40
165 1 53 36 39 38
166 1 53 36 39 40
167 1 35 36 53 58
168 1 35 36 53 54
169 1 39 36 53 58
170 1 39 36 53 54
171 1 20 37 38 33
172 1 20 37 38 39
173 1 33 38 39 36
174 1 33 38 39 40
175 1 37 38 39 36
176 1 37 38 39 40
177 1 36 39 40 57
178 1 38 39 40 57
179 1 39 40 57 58
180 1 24 41 42 43
181 1 46 41 42 43
182 1 24 41 46 45
183 1 24 41 46 47
184 1 42 41 46 45
185 1 42 41 46 47
186 1 41 42 43 44
187 1 42 43 44 47
188 1 42 43 44 61
189 1 43 44 47 46
190 1 43 44 47 48
191 1 61 44 47 46
192 1 61 44 47 48
193 1 43 44 61 62
194 1 43 44 61 66
195 1 47 44 61 62
196 1 47 44 61 66
197 1 28 45 46 41
198 1 28 45 46 47
199 1 50 45 46 41
200 1 50 45 46 47
201 1 28 45 50 49
202 1 28 45 50 51
203 1 46 45 50 49
204 1 46 45 50 51
205 1 41 46 47 44
206 1 41 46 47 48
207 1 45 46 47 44
208 1 45 46 47 48
209 1 44 47 48 51
210 1 44 47 48 65
211 1 46 47 48 51
212 1 46 47 48 65
213 1 47 48 51 50
214 1 47 48 51 52
215 1 65 48 51 50
216 1 65 48 51 52
217 1 47 48 65 66
218 1 47 48 65 70
219 1 51 48 65 66
220 1 51 48 65 70
221 1 32 49 54 53
222 1 32 49 54 55
223 1 50 49 54 53
224 1 50 49 54 55
225 1 32 49 50 45
226 1 32 49 50 51
227 1 54 49 50 45
228 1 54 49 50 51
229 1 45 50 51 48
230 1 45 50 51 52
231 1 49 50 51 48
232 1 49 50 51 52
233 1 48 51 52 55
234 1 48 51 52 69
235 1 50 51 52 55
236 1 50 51 52 69
237 1 51 52 55 54
238 1 51 52 55 56
239 1 69 52 55 54
240 1 69 52 55 56
241 1 51 52 69 74
242 1 51 52 69 70
243 1 55 52 69 74
244 1 55 52 69 70
245 1 36 53 58 57
246 1 36 53 58 59
247 1 54 53 58 57
248 1 54 53 58 59
249 1 36 53 54 49
250 1 36 53 54 55
251 1 58 53 54 49
252 1 58 53 54 55
253 1 49 54 55 52
254 1 49 54 55 56
255 1 53 54 55 52
256 1 53 54 55 56
257 1 52 55 56 59
258 1 52 55 56 73
259 1 54 55 56 59
260 1 54 55 56 73
261 1 55 56 59 58
262 1 55 56 59 60
263 1 73 56 59 58
264 1 73 56 59 60
265 1 55 56 73 74
266 1 55 56 73 78
267 1 59 56 73 74
268 1 59 56 73 78
269 1 40 57 58 53
270 1 40 57 58 59
271 1 53 58 59 56
272 1 53 58 59 60
273 1 57 58 59 56
274 1 57 58 59 60
275 1 56 59 60 77
276 1 58 59 60 77
277 1 59 60 77 78
278 1 44 61 62 63
279 1 66 61 62 63
280 1 44 61 66 65
281 1 44 61 66 67
282 1 62 61 66 65
283 1 62 61 66 67
284 1 61 62 63 64
285 1 62 63 64 67
286 1 62 63 64 81
287 1 63 64 67 66
288 1 63 64 67 68
289 1 81 64 67 66
290 1 81 64 67 68
291 1 63 64 81 82
292 1 63 64 81 86
293 1 67 64 81 82
294 1 67 64 81 86
295 1 48 65 66 61
296 1 48 65 66 67
297 1 70 65 66 61
298 1 70 65 66 67
299 1 48 65 70 69
300 1 48 65 70 71
301 1 66 65 70 69
302 1 66 65 70 71
303 1 61 66 67 64
304 1 61 66 67 68
305 1 65 66 67 64
306 1 65 66 67 68
307 1 64 67 68 71
308 1 64 67 68 85
309 1 66 67 68 71
310 1 66 67 68 85
311 1 67 68 71 70
312 1 67 68 71 72
313 1 85 68 71 70
314 1 85 68 71 72
315 1 67 68 85 86
316 1 67 68 85 90
317 1 71 68 85 86
318 1 71 68 85 90
319 1 52 69 74 73
320 1 52 69 74 75
321 1 70 69 74 73
322 1 70 69 74 75
323 1 52 69 70 65
324 1 52 69 70 71
325 1 74 69 70 65
326 1 74 69 70 71
327 1 65 70 71 68
328 1 65 70 71 72
329 1 69 70 71 68
330 1 69 70 71 72
331 1 68 71 72 75
332 1 68 71 72 89
333 1 70 71 72 75
334 1 70 71 72 89
335 1 71 72 75 74
336 1 71 72 75 76
337 1 89 72 75 74
338 1 89 72 75 76
339 1 71 72 89 94
340 1 71 72 89 90
341 1 75 72 89 94
342 1 75 72 89 90
343 1 56 73 74 69
344 1 56 73 74 75
345 1 78 73 74 69
346 1 78 73 74 75
347 1 56 73 78 77
348 1 56 73 78 79
349 1 74 73 78 77
350 1 74 73 78 79
351 1 69 74 75 72
352 1 69 74 75 76
353 1 73 74 75 72
354 1 73 74 75 76
355 1 72 75 76 79
356 1 72 75 76 93
357 1 74 75 76 79
358 1 74 75 76 93
359 1 75 76 79 78
360 1 75 76 79 80
361 1 93 76 79 78
362 1 93 76 79 80
363 1 75 76 93 98
364 1 75 76 93 94
365 1 79 76 93 98
366 1 79 76 93 94
367 1 60 77 78 73
368 1 60 77 78 79
369 1 73 78 79 76
370 1 73 78 79 80
371 1 77 78 79 76
372 1 77 78 79 80
373 1 76 79 80 97
374 1 78 79 80 97
375 1 79 80 97 98
376 1 64 81 82 83
377 1 86 81 82 83
378 1 64 81 86 85
379 1 64 81 86 87
380 1 82 81 86 85
381 1 82 81 86 87
382 1 81 82 83 84
383 1 82 83 84 87
384 1 82 83 84 101
385 1 83 84 87 86
386 1 83 84 87 88
387 1 101 84 87 86
388 1 101 84 87 88
389 1 83 84 101 102
390 1 83 84 101 106
391 1 87 84 101 102
392 1 87 84 101 106
393 1 68 85 86 81
394 1 68 85 86 87
395 1 90 85 86 81
396 1 90 85 86 87
397 1 68 85 90 89
398 1 68 85 90 91
399 1 86 85 90 89
400 1 86 85 90 91
401 1 81 86 87 84
402 1 81 86 87 88
403 1 85 86 87 84
404 1 85 86 87 88
405 1 84 87 88 91
406 1 84 87 88 105
407 1 86 87 88 91
408 1 86 87 88 105
409 1 87 88 91 90
410 1 87 88 91 92
411 1 105 88 91 90
412 1 105 88 91 92
413 1 87 88 105 106
414 1 87 88 105 110
415 1 91 88 105 106
416 1 91 88 105 110
417 1 72 89 94 93
418 1 72 89 94 95
419 1 90 89 94 93
420 1 90 89 94 95
421 1 72 89 90 85
422 1 72 89 90 91
423 1 94 89 90 85
424 1 94 89 90 91
425 1 85 90 91 88
426 1 85 90 91 92
427 1 89 90 91 88
428 1 89 90 91 92
429 1 88 91 92 95
430 1 88 91 92 109
431 1 90 91 92 95
432 1 90 91 92 109
433 1 91 92 95 94
434 1 91 92 95 96
435 1 109 92 95 94
436 1 109 92 95 96
437 1 91 92 109 114
438 1 91 92 109 110
439 1 95 92 109 114
440 1 95 92 109 110
441 1 76 93 98 97
442 1 76 93 98 99
443 1 94 93 98 97
444 1 94 93 98 99
445 1 76 93 94 89
446 1 76 93 94 95
447 1 98 93 94 89
448 1 98 93 94 95
449 1 89 94 95 92
450 1 89 94 95 96
451 1 93 94 95 92
452 1 93 94 95 96
453 1 92 95 96 99
454 1 92 95 96 113
455 1 94 95 96 99
456 1 94 95 96 113
457 1 95 96 99 98
458 1 95 96 99 100
459 1 113 96 99 98
460 1 113 96 99 100
461 1 95 96 113 114
462 1 95 96 113 118
463 1 99 96 113 114
464 1 99 96 113 118
465 1 80 97 98 93
466 1 80 97 98 99
467 1 93 98 99 96
468 1 93 98 99 100
469 1 97 98 99 96
470 1 97 98 99 100
471 1 96 99 100 117
472 1 98 99 100 117
473 1 99 100 117 118
474 1 84 101 102 103
475 1 106 101 102 103
476 1 84 101 106 105
477 1 84 101 106 107
478 1 102 101 106 105
479 1 102 101 106 107
480 1 101 102 103 104
481 1 102 103 104 107
482 1 102 103 104 121
483 1 103 104 107 106
484 1 103 104 107 108
485 1 121 104 107 106
486 1 121 104 107 108
487 1 103 104 121 122
488 1 103 104 121 126
489 1 107 104 121 122
490 1 107 104 121 126
491 1 88 105 106 101
492 1 88 105 106 107
493 1 110 105 106 101
494 1 110 105 106 107
495 1 88 105 110 109
496 1 88 105 110 111
497 1 106 105 110 109
498 1 106 105 110 111
499 1 101 106 107 104
500 1 101 106 107 108
501 1 105 106 107 104
502 1 105 106 107 108
503 1 104 107 108 111
504 1 104 107 108 125
505 1 106 107 108 111
506 1 106 107 108 125
507 1 107 108 111 110
508 1 107 108 111 112
509 1 125 108 111 110
510 1 125 108 111 112
511 1 107 108 125 126
512 1 107 108 125 130
513 1 111 108 125 126
514 1 111 108 125 130
515 1 92 109 114 113
516 1 92 109 114 115
517 1 110 109 114 113
518 1 110 109 114 115
519 1 92 109 110 105
520 1 92 109 110 111
521 1 114 109 110 105
522 1 114 109 110 111
523 1 105 110 111 108
524 1 105 110 111 112
525 1 109 110 111 108
526 1 109 110 111 112
527 1 108 111 112 115
528 1 108 111 112 129
529 1 110 111 112 115
530 1 110 111 112 129
531 1 111 112 115 114
532 1 111 112 115 116
533 1 129 112 115 114
534 1 129 112 115 116
535 1 111 112 129 134
536 1 111 112 129 130
537 1 115 112 129 134
538 1 115 112 129 130
539 1 96 113 114 109
540 1 96 113 114 115
541 1 118 113 114 109
542 1 118 113 114 115
543 1 96 113 118 117
544 1 96 113 118 119
545 1 114 113 118 117
546 1 114 113 118 119
547 1 109 114 115 112
548 1 109 114 115 116
549 1 113 114 115 112
550 1 113 114 115 116
551 1 112 115 116 119
552 1 112 115 116 133
553 1 114 115 116 119
554 1 114 115 116 133
555 1 115 116 119 118
556 1 115 116 119 120
557 1 133 116 119 118
558 1 133 116 119 120
559 1 115 116 133 138
560 1 115 116 133 134
561 1 119 116 133 138
562 1 119 116 133 134
563 1 100 117 118 113
564 1 100 117 118 119
565 1 113 118 119 116
566 1 113 118 119 120
567 1 117 118 119 116