ITEM: TIMESTEP
0
ITEM: NUMBER OF ATOMS
100
ITEM: BOX BOUNDS pp pp pp
0.0000000000000000e+00 1.1856311014966876e+01
0.0000000000000000e+00 1.1856311014966876e+01
0.0000000000000000e+00 1.1856311014966876e+01
ITEM: ATOMS id type xs ys zs
23 1 0.131971 0.0339174 0.050103
2 1 0.824304 0.0812165 0.00536631
12 1 0.775161 0.12698 0.156613
31 1 0.73964 0.122807 0.0124183
10 1 0.0483905 0.299702 0.083727
28 1 0.105505 0.217118 0.0983483
4 1 0.184878 0.2386 0.156671
5 1 0.170237 0.171775 0.0225622
13 1 0.395389 0.310353 0.0951988
17 1 0.347964 0.227945 0.0661059
7 1 0.292108 0.460344 0.00786914
16 1 0.105441 0.143825 0.269158
18 1 0.0418283 0.00775105 0.271912
29 1 0.0703965 0.15358 0.216199
25 1 0.273101 0.0100685 0.221654
27 1 0.257576 0.082181 0.216219
6 1 0.793663 0.0875942 0.195601
15 1 0.481957 0.253897 0.245317
20 1 0.641059 0.272522 0.277806
24 1 0.0810649 0.458094 0.193123
26 1 0.34524 0.453632 0.189997
22 1 0.669804 0.393662 0.285323
1 1 0.0603984 0.115398 0.489131
3 1 0.143095 0.00317893 0.428306
11 1 0.222593 0.121463 0.433139
30 1 0.663535 0.0328646 0.356146
19 1 0.025779 0.267293 0.401649
21 1 0.374621 0.248132 0.355312
9 1 0.100344 0.485239 0.409381
14 1 0.00674647 0.387843 0.477746
8 1 0.463641 0.413367 0.455563
43 1 0.0828855 0.056146 0.645025
41 1 0.245735 0.0643571 0.649312
35 1 0.469638 0.197813 0.636191
45 1 0.990677 0.312409 0.658613
42 1 0.236353 0.389282 0.659044
38 1 0.522371 0.491024 0.633267
34 1 0.371105 0.164679 0.762039
48 1 0.713936 0.127251 0.712115
33 1 0.478104 0.49091 0.731491
40 1 0.731065 0.0050535 0.934115
39 1 0.86976 0.0577067 0.8768
44 1 0.933959 0.0444405 0.911092
37 1 0.38616 0.197231 0.868342
46 1 0.93944 0.170339 0.890563
36 1 0.199225 0.371205 0.845329
47 1 0.693905 0.466531 0.989027
32 1 0.888287 0.445288 0.959821
67 1 0.222443 0.601005 0.0830813
73 1 0.172168 0.620465 0.162925
74 1 0.281352 0.680317 0.0802096
65 1 0.922876 0.78111 0.109841
70 1 0.979045 0.814009 0.0565806
49 1 0.191643 0.941283 0.136559
56 1 0.61641 0.996258 0.106749
76 1 0.68584 0.917604 0.162677
68 1 0.872848 0.964246 0.0822036
61 1 0.0997536 0.558468 0.167345
58 1 0.186449 0.651524 0.170977
54 1 0.256601 0.693474 0.220949
75 1 0.178894 0.672416 0.301879
60 1 0.460146 0.674916 0.311067
63 1 0.44974 0.782423 0.183756
66 1 0.736765 0.808547 0.257159
53 1 0.145826 0.904459 0.241952
52 1 0.406313 0.901659 0.185586
72 1 0.548277 0.885595 0.189574
59 1 0.614716 0.531949 0.459717
50 1 0.166408 0.824862 0.452167
57 1 0.126836 0.738468 0.434354
64 1 0.0506232 0.824325 0.42427
62 1 0.458303 0.70033 0.444639
51 1 0.565226 0.757805 0.428642
71 1 0.699927 0.675933 0.408475
55 1 0.488604 0.966106 0.351085
69 1 0.423335 0.996748 0.335589
88 1 0.190908 0.585269 0.617385
100 1 0.52279 0.530764 0.558324
98 1 0.315154 0.793331 0.506407
94 1 0.409396 0.716051 0.665072
91 1 0.322776 0.895734 0.599624
83 1 0.348484 0.969099 0.648616
79 1 0.230711 0.553143 0.66969
86 1 0.652681 0.611279 0.772036
92 1 0.595618 0.548033 0.791613
99 1 0.572947 0.515368 0.790984
84 1 0.677493 0.626327 0.67129
97 1 0.724387 0.777931 0.69419
78 1 0.544468 0.87545 0.690202
77 1 0.705477 0.956667 0.709351
96 1 0.810252 0.902171 0.792033
93 1 0.088267 0.503774 0.924282
80 1 0.203697 0.540304 0.896102
81 1 0.473412 0.635857 0.854787
89 1 0.701234 0.639731 0.952515
85 1 0.584324 0.737126 0.884064
95 1 0.949649 0.755455 0.937831
90 1 0.0690106 0.861953 0.839485
82 1 0.490087 0.883975 0.964797
87 1 0.569098 0.836734 0.991438
ITEM: TIMESTEP
100
ITEM: NUMBER OF ATOMS
96
ITEM: BOX BOUNDS pp pp pp
0.0000000000000000e+00 1.1856311014966876e+01
0.0000000000000000e+00 1.1856311014966876e+01
0.0000000000000000e+00 1.1856311014966876e+01
ITEM: ATOMS id type xs ys zs
23 1 0.132341 0.034081 0.0505278
2 1 0.824425 0.080444 0.00462999
12 1 0.769453 0.138655 0.143873
31 1 0.739831 0.122298 0.012816
10 1 0.0498484 0.29783 0.0841716
28 1 0.106829 0.217679 0.0983534
4 1 0.183037 0.237714 0.155351
5 1 0.168786 0.172547 0.0247415
13 1 0.394614 0.309152 0.0948763
17 1 0.348548 0.229207 0.0665854
7 1 0.291925 0.460526 0.00785259
16 1 0.113527 0.141274 0.281079
18 1 0.0424302 0.00800288 0.271804
29 1 0.0630638 0.156263 0.203235
25 1 0.274578 -7.79157e-06 0.221889
27 1 0.255178 0.0917604 0.215476
6 1 0.79922 0.0755581 0.207252
15 1 0.481871 0.253957 0.245507
20 1 0.641156 0.273753 0.277834
24 1 0.0815154 0.460294 0.192521
26 1 0.345222 0.453554 0.189846
22 1 0.669474 0.392381 0.285261
1 1 0.0607685 0.115175 0.489003
3 1 0.143163 0.00379155 0.428349
11 1 0.222095 0.120993 0.433074
30 1 0.663452 0.0328147 0.356055
19 1 0.0257857 0.267596 0.401934
21 1 0.374841 0.248137 0.355064
9 1 0.100113 0.485006 0.409515
14 1 0.00705165 0.387609 0.477351
8 1 0.463779 0.413543 0.455702
43 1 0.0831042 0.0562176 0.644834
41 1 0.246043 0.0638882 0.64928
35 1 0.469492 0.197756 0.636376
45 1 0.990699 0.31242 0.65855
42 1 0.236322 0.38956 0.659143
38 1 0.521413 0.489304 0.638726
34 1 0.371485 0.165317 0.763902
48 1 0.713942 0.127065 0.71214
33 1 0.479121 0.491 0.72934
40 1 0.731875 0.00596954 0.934655
39 1 0.860907 0.0600503 0.872997
44 1 0.94235 0.0437098 0.91583
37 1 0.385846 0.196608 0.866298
46 1 0.938947 0.168612 0.89075
36 1 0.199221 0.371407 0.845355
47 1 0.693969 0.466654 0.988984
32 1 0.888266 0.445296 0.959828
67 1 0.223101 0.60197 0.0832737
69 1 0.414425 1.00083 0.333299
74 1 0.280424 0.679217 0.0807988
65 1 0.919656 0.779287 0.112776
70 1 0.982034 0.815619 0.0528208
49 1 0.191335 0.941712 0.138189
56 1 0.61735 0.994877 0.107675
76 1 0.68449 0.918463 0.162153
68 1 0.872655 0.964601 0.0819631
61 1 0.0996643 0.556377 0.167791
55 1 0.497506 0.961927 0.353042
54 1 0.255276 0.692959 0.221744
75 1 0.180158 0.672895 0.30062
60 1 0.460183 0.675258 0.311764
63 1 0.449707 0.783845 0.183931
66 1 0.736615 0.808793 0.256965
53 1 0.146344 0.905393 0.240683
52 1 0.407165 0.900658 0.185747
72 1 0.547987 0.885635 0.189308
59 1 0.614066 0.532041 0.460354
50 1 0.164729 0.824471 0.451697
57 1 0.125835 0.740298 0.434036
64 1 0.0537236 0.822877 0.424817
62 1 0.459546 0.700886 0.443764
51 1 0.564086 0.756917 0.428702
71 1 0.699609 0.675984 0.408525
88 1 0.185338 0.589758 0.610036
100 1 0.523361 0.532465 0.554234
98 1 0.31505 0.793821 0.506791
94 1 0.409403 0.716081 0.665023
91 1 0.322454 0.894479 0.598662
83 1 0.348297 0.970289 0.649126
79 1 0.236308 0.54838 0.677038
86 1 0.653152 0.611739 0.769914
87 1 0.568803 0.836692 0.991093
82 1 0.490511 0.883704 0.964952
84 1 0.676934 0.626192 0.673538
97 1 0.724281 0.777847 0.69427
78 1 0.544553 0.875444 0.690216
77 1 0.705795 0.956478 0.709666
96 1 0.809825 0.902427 0.791786
93 1 0.089569 0.504105 0.923993
80 1 0.202579 0.539695 0.896562
81 1 0.47373 0.636043 0.854754
89 1 0.701059 0.639715 0.952374
85 1 0.584172 0.737076 0.884337
95 1 0.949865 0.755896 0.938619
90 1 0.0689294 0.861925 0.839553
ITEM: TIMESTEP
200
ITEM: NUMBER OF ATOMS
96
ITEM: BOX BOUNDS pp pp pp
0.0000000000000000e+00 1.1856311014966876e+01
0.0000000000000000e+00 1.1856311014966876e+01
0.0000000000000000e+00 1.1856311014966876e+01
ITEM: ATOMS id type xs ys zs
23 1 0.132993 0.0344373 0.0513255
2 1 0.82449 0.0789682 0.00307186
12 1 0.769251 0.138111 0.142031
31 1 0.740326 0.121262 0.0136267
10 1 0.0520983 0.295102 0.0848666
28 1 0.107978 0.217288 0.0973283
4 1 0.181245 0.236441 0.154026
5 1 0.166101 0.17413 0.0289687
13 1 0.394086 0.308506 0.0948304
17 1 0.348734 0.22998 0.0669236
7 1 0.291578 0.460868 0.0078182
16 1 0.113781 0.140635 0.28084
18 1 0.0435714 0.00846343 0.271595
29 1 0.0643878 0.157278 0.201336
25 1 0.273284 -0.00118665 0.22086
27 1 0.25447 0.0919167 0.215415
6 1 0.799114 0.0753928 0.206909
15 1 0.48169 0.254073 0.245869
20 1 0.641446 0.276453 0.277914
24 1 0.0820953 0.462952 0.191778
26 1 0.345184 0.453417 0.189569
22 1 0.668756 0.389587 0.285116
1 1 0.0614898 0.114733 0.488742
3 1 0.143314 0.00503273 0.428436
11 1 0.221099 0.120052 0.432941
30 1 0.663289 0.0327147 0.355881
19 1 0.0257908 0.268213 0.402488
21 1 0.375264 0.24815 0.354583
9 1 0.0996681 0.484556 0.409773
14 1 0.00763688 0.387148 0.476577
8 1 0.464043 0.413881 0.455962
43 1 0.0835064 0.0563478 0.644469
41 1 0.246681 0.062951 0.649211
35 1 0.469236 0.197654 0.636706
45 1 0.990737 0.312434 0.658433
42 1 0.236267 0.3901 0.659332
38 1 0.520428 0.48993 0.640005
34 1 0.372207 0.166569 0.767622
48 1 0.713952 0.126713 0.712185
33 1 0.480296 0.491166 0.726871
40 1 0.733559 0.0078531 0.935766
39 1 0.859814 0.0612974 0.8743
44 1 0.942541 0.0458048 0.916366
37 1 0.385237 0.195371 0.862239
46 1 0.937953 0.164999 0.89117
36 1 0.199207 0.371794 0.845407
47 1 0.694085 0.466875 0.988907
32 1 0.888217 0.445303 0.959844
67 1 0.223306 0.602354 0.0836628
69 1 0.413963 1.00085 0.332871
74 1 0.279751 0.678588 0.0818116
65 1 0.91942 0.77926 0.112778
70 1 0.981788 0.815145 0.0511289
49 1 0.190742 0.942406 0.141857
56 1 0.619434 0.991857 0.109741
76 1 0.68156 0.920503 0.160861
68 1 0.872279 0.965304 0.0814964
61 1 0.0997256 0.553937 0.168265
55 1 0.497964 0.961719 0.352862
54 1 0.252502 0.691938 0.223613
75 1 0.182839 0.673834 0.297868
60 1 0.46029 0.675929 0.313241
63 1 0.449582 0.786941 0.184249
66 1 0.736349 0.809221 0.256635
53 1 0.147588 0.907365 0.23785
52 1 0.408982 0.898416 0.186035
72 1 0.547376 0.885708 0.18879
59 1 0.612686 0.53221 0.461702
50 1 0.16164 0.825485 0.451004
57 1 0.122828 0.74235 0.433098
64 1 0.0605537 0.819826 0.426053
62 1 0.462307 0.702116 0.441946
51 1 0.561494 0.755024 0.428848
71 1 0.699022 0.676071 0.408623
88 1 0.185168 0.589877 0.609758
100 1 0.524488 0.531778 0.5538
98 1 0.314892 0.794822 0.507609
94 1 0.409416 0.716135 0.664936
91 1 0.322479 0.893881 0.598016
83 1 0.347248 0.970732 0.64886
79 1 0.236527 0.54772 0.677305
86 1 0.653592 0.612302 0.767623
87 1 0.568785 0.836269 0.990621
82 1 0.490771 0.883508 0.965067
84 1 0.676305 0.626189 0.676058
97 1 0.724077 0.777677 0.694433
78 1 0.544713 0.875427 0.690247
77 1 0.706434 0.956098 0.710296
96 1 0.808983 0.902913 0.791291
93 1 0.0924246 0.504842 0.923354
80 1 0.200079 0.538419 0.89751
81 1 0.474329 0.636403 0.854706
89 1 0.700733 0.639682 0.952122
85 1 0.583871 0.736993 0.884865
95 1 0.950325 0.756807 0.940258
90 1 0.0687784 0.861869 0.839686
ITEM: TIMESTEP
300
ITEM: NUMBER OF ATOMS
96
ITEM: BOX BOUNDS pp pp pp
0.0000000000000000e+00 1.1856311014966876e+01
0.0000000000000000e+00 1.1856311014966876e+01
0.0000000000000000e+00 1.1856311014966876e+01
ITEM: ATOMS id type xs ys zs
23 1 0.133765 0.0350277 0.0523692
2 1 0.824421 0.0768104 0.000430738
12 1 0.76911 0.136979 0.139744
31 1 0.741106 0.119746 0.014778
10 1 0.053919 0.293156 0.0854938
28 1 0.10737 0.215667 0.0972231
4 1 0.180302 0.234995 0.153258
5 1 0.164226 0.175193 0.0328786
13 1 0.39389 0.308519 0.0950701
17 1 0.348496 0.230147 0.0670743
7 1 0.29111 0.461319 0.0077724
16 1 0.113715 0.139866 0.279841
18 1 0.0451213 0.00910406 0.271289
29 1 0.06676 0.158704 0.199146
8 1 0.464408 0.414343 0.456314
27 1 0.253637 0.0913443 0.21536
6 1 0.798797 0.0755428 0.206065
15 1 0.481407 0.25423 0.246364
20 1 0.642118 0.281062 0.278101
24 1 0.0823089 0.463535 0.19156
26 1 0.345132 0.453246 0.189206
22 1 0.667545 0.384855 0.284848
1 1 0.0625105 0.114089 0.488358
3 1 0.143584 0.0068782 0.42858
11 1 0.219648 0.118654 0.432769
30 1 0.663072 0.0325817 0.355649
19 1 0.0257789 0.269142 0.40327
21 1 0.375852 0.248173 0.353922
9 1 0.0990575 0.483922 0.410129
14 1 0.00844056 0.386479 0.475483
69 1 0.413918 0.000625478 0.33247
43 1 0.0840254 0.0565106 0.643978
41 1 0.247651 0.0615846 0.6491
35 1 0.468923 0.197529 0.637116
45 1 0.990787 0.312449 0.658284
42 1 0.236193 0.390836 0.659581
38 1 0.520211 0.490698 0.639403
34 1 0.372735 0.167338 0.769688
48 1 0.713966 0.126252 0.712243
33 1 0.480794 0.49142 0.725854
40 1 0.736209 0.0107718 0.937547
39 1 0.858709 0.0632253 0.876596
44 1 0.942448 0.0495848 0.916752
37 1 0.384843 0.19461 0.859732
46 1 0.936345 0.158878 0.891935
36 1 0.199175 0.372325 0.845486
47 1 0.694233 0.467159 0.988807
32 1 0.888139 0.445309 0.959869
67 1 0.223059 0.602164 0.084195
71 1 0.698274 0.676171 0.40875
74 1 0.27937 0.678438 0.0830428
65 1 0.919536 0.779463 0.112356
70 1 0.980943 0.814063 0.0489161
49 1 0.190042 0.943209 0.147846
56 1 0.622197 0.98769 0.112636
76 1 0.677487 0.92336 0.159012
68 1 0.871747 0.9663 0.0808355
61 1 0.100358 0.553666 0.168136
55 1 0.498022 0.961698 0.352501
54 1 0.249636 0.690841 0.225374
75 1 0.185606 0.674788 0.294937
60 1 0.460538 0.676904 0.315621
63 1 0.449217 0.792224 0.184647
66 1 0.73603 0.809712 0.256272
53 1 0.149759 0.910398 0.233337
52 1 0.412023 0.894404 0.186366
72 1 0.546345 0.88578 0.188046
59 1 0.610586 0.532395 0.463783
50 1 0.158526 0.826903 0.450332
57 1 0.121184 0.742121 0.432212
64 1 0.0661735 0.818708 0.427169
62 1 0.466902 0.704146 0.439124
51 1 0.557024 0.752008 0.429078
25 1 0.270813 0.997702 0.219159
88 1 0.185275 0.589756 0.609832
100 1 0.526198 0.530885 0.552974
98 1 0.31475 0.796282 0.508849
94 1 0.40943 0.716205 0.664829
91 1 0.322624 0.893405 0.597343
83 1 0.345604 0.970988 0.648227
79 1 0.236479 0.547091 0.677213
86 1 0.653466 0.61261 0.767447
87 1 0.568902 0.835583 0.990024
82 1 0.490965 0.883324 0.965178
84 1 0.676184 0.626619 0.676523
97 1 0.723804 0.777442 0.694657
78 1 0.544923 0.87539 0.690298
77 1 0.707376 0.955542 0.711207
96 1 0.807767 0.903582 0.790554
93 1 0.0972734 0.506115 0.92226
80 1 0.195723 0.536402 0.898989
81 1 0.475139 0.636901 0.854661
89 1 0.7003 0.639637 0.951801
85 1 0.583451 0.736901 0.885594
95 1 0.951033 0.758213 0.942841
90 1 0.06858 0.861787 0.839866
ITEM: TIMESTEP
400
ITEM: NUMBER OF ATOMS
96
ITEM: BOX BOUNDS pp pp pp
0.0000000000000000e+00 1.1856311014966876e+01
0.0000000000000000e+00 1.1856311014966876e+01
0.0000000000000000e+00 1.1856311014966876e+01
ITEM: ATOMS id type xs ys zs
23 1 0.134609 0.0359521 0.0535833
69 1 0.413887 0.00036427 0.332043
12 1 0.7689 0.135439 0.136673
31 1 0.74228 0.117582 0.0162583
10 1 0.0551254 0.292234 0.086054
28 1 0.104857 0.212873 0.0997959
4 1 0.179572 0.233145 0.152607
5 1 0.163842 0.175272 0.0358094
13 1 0.393686 0.308585 0.0953699
17 1 0.348198 0.230313 0.0672398
7 1 0.290528 0.461858 0.00772413
16 1 0.113477 0.138927 0.278239
18 1 0.0470757 0.00993612 0.270878
29 1 0.0703212 0.160979 0.195784
8 1 0.464885 0.414932 0.456765
27 1 0.252577 0.0903456 0.215249
6 1 0.798372 0.075826 0.204906
15 1 0.480985 0.254431 0.246994
20 1 0.643003 0.286638 0.278349
24 1 0.0824897 0.463814 0.191407
26 1 0.345069 0.453042 0.188763
22 1 0.666061 0.379136 0.28451
1 1 0.0638797 0.113196 0.487823
3 1 0.144062 0.00954023 0.42881
11 1 0.217621 0.11664 0.432569
30 1 0.662815 0.0324226 0.355368
19 1 0.0257357 0.27047 0.404313
21 1 0.376613 0.24821 0.353074
9 1 0.0982812 0.48309 0.410584
14 1 0.00946695 0.385542 0.474029
43 1 0.084635 0.0566895 0.643369
41 1 0.249087 0.0596872 0.648939
35 1 0.468551 0.197378 0.637606
45 1 0.990846 0.312471 0.658111
42 1 0.236104 0.391759 0.659879
38 1 0.520192 0.491496 0.638381
34 1 0.372991 0.16741 0.769385
48 1 0.713989 0.125705 0.712312
33 1 0.481184 0.491721 0.725082
40 1 0.740466 0.0153279 0.940461
39 1 0.857289 0.0664267 0.880223
44 1 0.942566 0.0555118 0.917112
37 1 0.384755 0.194532 0.85949
46 1 0.933585 0.149124 0.893201
36 1 0.199111 0.373008 0.845603
47 1 0.694404 0.467494 0.988689
32 1 0.888024 0.445317 0.959907
2 1 0.823913 0.0737367 0.99582
67 1 0.222708 0.601903 0.0848655
71 1 0.697417 0.67627 0.408901
74 1 0.278902 0.678278 0.084527
65 1 0.919789 0.779758 0.111695
70 1 0.979586 0.81222 0.0454518
49 1 0.191793 0.945987 0.152527
56 1 0.622253 0.986285 0.113561
76 1 0.675645 0.923159 0.159388
68 1 0.871038 0.967599 0.0799665
61 1 0.101237 0.553789 0.167848
55 1 0.498089 0.961669 0.352074
54 1 0.248993 0.690246 0.224494
75 1 0.186143 0.675176 0.294354
60 1 0.461085 0.678306 0.319416
63 1 0.449012 0.799446 0.185074
66 1 0.735669 0.81025 0.255897
53 1 0.151141 0.913045 0.231265
52 1 0.416474 0.889057 0.186693
72 1 0.544328 0.885644 0.187112
59 1 0.607387 0.532546 0.46702
50 1 0.1584 0.827091 0.450251
57 1 0.121559 0.741737 0.431742
64 1 0.0668836 0.818986 0.427237
62 1 0.470217 0.705224 0.43529
51 1 0.553615 0.749482 0.428947
25 1 0.266432 0.995846 0.216414
88 1 0.185411 0.589593 0.609934
100 1 0.528843 0.529953 0.551086
98 1 0.314623 0.798298 0.510596
94 1 0.409437 0.716291 0.664709
91 1 0.322786 0.892803 0.596457
83 1 0.343336 0.971321 0.647349
79 1 0.236405 0.546293 0.677079
86 1 0.653225 0.612924 0.767588
87 1 0.569023 0.834686 0.989254
82 1 0.491193 0.883082 0.965326
84 1 0.676126 0.627202 0.67674
97 1 0.723464 0.777148 0.694933
78 1 0.545164 0.875335 0.690368
77 1 0.708701 0.954767 0.712465
96 1 0.806097 0.904456 0.789493
93 1 0.10247 0.507386 0.921112
80 1 0.191167 0.534178 0.900566
81 1 0.476141 0.637531 0.854633
89 1 0.699765 0.639581 0.951423
85 1 0.582896 0.736816 0.886526
95 1 0.952114 0.760385 0.946935
90 1 0.0683398 0.861672 0.840088
