ITEM: TIMESTEP
1000
ITEM: NUMBER OF ATOMS
125
ITEM: BOX BOUNDS pp pp pp
0.0000000000000000e+00 1.0500000000000000e+01
0.0000000000000000e+00 1.2000000000000000e+01
0.0000000000000000e+00 1.3000000000000000e+01
ITEM: ATOMS id type x y z c_charge
32 1 8.94708 3.99481 1.80396 -5.71721e-07
33 1 6.31522 3.97031 1.7915 -3.21525e-07
34 1 9.02965 5.38013 4.08961 2.65501e-06
39 1 3.72572 4.06494 1.72039 -2.06633e-06
40 1 1.10775 4.01913 1.7467 -1.11415e-06
43 1 6.39217 5.37729 4.13112 8.69084e-07
44 1 3.77687 5.38137 4.08594 -1.00396e-06
52 1 1.18557 5.37331 4.12711 -7.87375e-07
73 1 4.99764 1.79815 1.42801 7.841e-07
74 1 7.59776 1.82368 1.33887 -1.1633e-06
75 1 7.69624 3.17764 3.80779 2.59215e-08
76 1 9.04987 1.01665 3.39188 -6.88827e-07
77 1 6.42179 0.84674 3.47398 1.38829e-06
78 1 9.05899 2.24317 5.80139 -3.81111e-07
80 1 10.3798 1.86536 1.31338 1.85391e-06
81 1 2.38182 1.9132 1.32873 -2.01308e-07
82 1 2.43981 3.18564 3.72213 -6.0782e-07
83 1 3.76371 0.986242 3.42986 -1.02731e-06
84 1 1.1975 0.995977 3.32275 1.4136e-07
85 1 5.04061 3.1017 3.74368 -2.10838e-06
86 1 5.15217 4.35029 6.0786 -1.82316e-06
87 1 6.37593 2.13109 5.79291 -7.57135e-08
88 1 3.82906 2.10937 5.6988 -4.4785e-07
89 1 7.71986 4.38616 6.09967 9.22244e-07
94 1 10.2838 3.15243 3.79229 -5.20498e-07
95 1 10.4039 4.44058 6.11013 -9.53184e-07
96 1 1.24836 2.1433 5.67858 -1.55146e-06
97 1 2.5194 4.38575 6.09061 -9.98669e-07
31 1 7.76119 6.18299 2.08211 4.84703e-07
38 1 2.41984 6.29457 2.11291 -8.51115e-08
41 1 5.11207 6.27513 2.07629 9.2742e-07
50 1 10.2935 6.28225 2.06437 2.21553e-06
110 1 7.79656 11.9754 5.32516 -7.62907e-07
111 1 2.42438 11.8833 5.30306 1.94247e-07
112 1 5.06909 11.91 5.35716 2.70449e-08
118 1 10.4096 0.00537607 5.27145 2.02917e-06
1 1 9.04043 11.6452 0.898794 1.16707e-06
3 1 7.69454 9.45869 0.540814 1.26142e-06
4 1 8.9944 7.25853 0.101352 5.59641e-07
5 1 6.41939 7.23216 0.108463 1.13663e-07
6 1 9.05136 8.49373 2.48616 1.7384e-06
7 1 2.52457 9.36655 0.500013 6.7372e-07
8 1 3.84271 7.184 0.0353704 -7.23691e-07
9 1 1.07456 7.19546 0.168186 -1.48725e-06
10 1 5.09732 9.35201 0.557254 1.63066e-07
11 1 5.15871 10.6253 2.8514 -3.6846e-07
12 1 6.40248 8.43168 2.49727 -8.33403e-07
13 1 3.85836 8.48059 2.50671 -1.53067e-06
14 1 7.8225 10.7243 2.94695 -1.97384e-06
15 1 9.12539 9.74663 4.96673 -6.87991e-07
16 1 6.4988 9.75607 4.93181 6.65741e-08
18 1 10.3592 9.45688 0.490393 -1.28559e-06
19 1 10.3752 10.774 2.9239 -3.56444e-07
20 1 1.1994 8.52763 2.53467 -1.4348e-06
21 1 2.59189 10.6905 2.89427 1.68744e-06
22 1 3.79704 9.65037 4.84126 8.77269e-08
23 1 1.15149 9.73345 4.97434 1.29699e-06
42 1 5.12006 7.49553 4.48733 -1.57372e-09
45 1 7.71792 7.52063 4.50291 -1.60324e-06
51 1 10.3395 7.5022 4.53603 -6.6505e-07
53 1 2.45823 7.52614 4.46305 6.31001e-07
27 1 5.0213 4.99994 12.6959 7.0998e-07
28 1 6.27094 2.69134 12.2993 -1.6927e-06
29 1 3.72247 2.87055 12.3869 -1.65187e-06
30 1 7.65362 4.94566 12.7169 6.70725e-07
35 1 10.2425 4.96632 12.7896 3.01258e-07
36 1 1.08225 2.87109 12.3076 -9.32038e-07
37 1 2.36762 5.01183 12.7394 2.62164e-06
70 1 8.92709 2.6956 12.4139 -9.01943e-07
90 1 7.75375 5.59848 8.53976 -6.65861e-07
91 1 9.10319 3.37456 8.17616 -2.87793e-08
92 1 6.44868 3.33528 8.0963 -4.23666e-07
93 1 9.0032 4.53095 10.4876 -1.32264e-06
98 1 2.53465 5.56187 8.49646 1.7521e-07
99 1 3.86427 3.26932 8.08201 -4.22803e-07
100 1 1.19814 3.30133 8.06739 -1.44883e-06
101 1 5.15638 5.45533 8.57147 2.878e-06
103 1 6.34081 4.46323 10.4752 -1.33663e-06
104 1 3.71929 4.55494 10.4536 6.67785e-07
106 1 10.3514 5.62002 8.47697 8.76418e-07
108 1 1.07845 4.57018 10.3946 9.87325e-07
113 1 5.11954 1.14435 7.66935 1.5165e-07
114 1 7.8327 1.1583 7.70728 9.26907e-07
115 1 7.70069 2.39311 10.1404 -9.48488e-07
116 1 9.12747 0.118176 9.63496 1.27103e-06
117 1 6.38055 0.206148 9.6472 -3.14174e-07
119 1 10.381 1.1651 7.67659 -2.40797e-07
120 1 2.5121 1.0671 7.6445 -4.02045e-07
121 1 2.38079 2.34938 10.1198 1.13003e-06
122 1 3.82253 0.0690497 9.63022 7.69296e-07
123 1 1.22474 0.0930432 9.60678 4.86648e-07
124 1 5.08965 2.39978 10.0497 -2.58992e-07
125 1 10.3432 2.29262 10.1021 -2.23649e-06
71 1 2.49073 11.0042 11.5702 -1.41164e-06
72 1 5.0999 11.3309 11.7082 1.63904e-06
79 1 10.355 11.2871 11.6316 9.78257e-07
2 1 7.74449 11.2863 11.5987 1.05183e-06
17 1 9.0969 10.877 7.30966 -1.94784e-07
24 1 6.52262 11.0521 7.26537 2.37599e-06
25 1 3.80191 10.8549 7.32703 1.61264e-06
26 1 1.1751 10.9106 7.21967 1.76738e-06
46 1 7.78402 8.78219 6.98464 -1.05539e-06
47 1 9.08843 6.50053 6.52821 1.6828e-06
48 1 6.41381 6.61324 6.53025 7.06353e-07
54 1 2.48817 8.69907 6.85577 -1.11622e-06
55 1 3.77983 6.62026 6.48592 2.01721e-06
56 1 1.20784 6.60955 6.4872 1.17447e-06
57 1 5.14471 8.81907 6.98996 -2.54847e-06
64 1 10.3926 8.67229 6.97481 -2.49812e-07
49 1 9.04372 7.80067 8.9765 -8.4781e-07
58 1 5.14926 10.0187 9.32082 4.20482e-07
59 1 6.43234 7.85773 8.90567 -3.90749e-07
60 1 3.8443 7.82173 8.87571 -6.52109e-07
61 1 7.79883 10.0433 9.2741 2.15466e-07
62 1 8.9968 8.9767 11.2527 -3.16346e-07
63 1 6.44345 8.97691 11.2243 3.78615e-07
65 1 10.392 9.98594 9.31984 -8.55963e-07
66 1 1.26597 7.67789 8.86146 1.0273e-06
67 1 2.53636 9.87971 9.28211 -1.84147e-07
68 1 3.79987 8.95023 11.2115 -5.69425e-07
69 1 1.11279 8.9108 11.2062 -7.945e-07
102 1 5.10188 6.7139 10.8374 1.4536e-06
105 1 7.69298 6.71194 10.9471 1.67e-06
107 1 10.3358 6.7701 10.8777 1.56606e-07
109 1 2.47298 6.71886 10.7853 -2.86914e-07
ITEM: TIMESTEP
2000
ITEM: NUMBER OF ATOMS
125
ITEM: BOX BOUNDS pp pp pp
0.0000000000000000e+00 1.0500000000000000e+01
0.0000000000000000e+00 1.2000000000000000e+01
0.0000000000000000e+00 1.3000000000000000e+01
ITEM: ATOMS id type x y z c_charge
32 1 8.9728 4.02188 1.67833 -5.05863e-07
33 1 6.38863 4.01238 1.68322 -1.29841e-06
34 1 8.99714 5.21032 4.16608 -9.35212e-07
39 1 3.74143 4.04004 1.66267 -1.74202e-06
40 1 1.11118 4.10831 1.61758 1.64658e-06
43 1 6.45623 5.34043 4.09095 -2.65863e-06
44 1 3.83564 5.32552 4.08865 -9.36093e-07
52 1 1.19184 5.31872 4.1098 -1.61995e-06
73 1 5.05914 1.86966 1.33542 7.45871e-07
74 1 7.64526 1.79468 1.44075 -6.85671e-08
75 1 7.78227 3.08133 3.65157 2.51326e-06
76 1 8.97691 0.789795 3.44516 -2.48536e-06
77 1 6.31831 1.00626 3.39561 -1.70881e-06
78 1 9.0603 2.09988 5.63106 -1.1661e-06
80 1 10.3062 1.90276 1.40492 1.06623e-06
81 1 2.43773 1.87147 1.48888 -1.30216e-06
82 1 2.53013 3.05745 3.70772 1.98014e-06
83 1 3.79983 0.85186 3.40102 -1.62828e-06
84 1 1.09407 0.907841 3.48782 -5.67024e-08
85 1 5.13977 3.19729 3.72673 -1.45385e-06
86 1 5.14649 4.32922 6.13371 1.78429e-06
87 1 6.4519 2.13566 5.71323 -1.68508e-06
88 1 3.83916 2.17758 5.7192 -1.41234e-06
89 1 7.71582 4.40003 6.16786 5.47417e-08
94 1 10.3937 3.08903 3.63387 7.50199e-07
95 1 10.354 4.31832 6.10711 5.50666e-06
96 1 1.13911 2.19359 5.76744 -4.40147e-06
97 1 2.46504 4.36559 5.97254 7.96168e-07
31 1 7.73112 6.27525 2.15115 1.49608e-06
38 1 2.39596 6.19149 2.1018 6.32903e-07
41 1 5.05383 6.20185 2.08337 -2.32946e-07
50 1 10.2887 6.26473 2.16289 4.35249e-07
110 1 7.67506 11.8843 5.3423 1.01822e-06
111 1 2.47988 11.9472 5.38038 3.2399e-06
112 1 5.28586 11.9576 5.31872 3.53416e-07
118 1 10.426 11.8843 5.36925 1.66906e-06
1 1 9.07728 11.6923 0.991896 -9.93286e-07
3 1 7.74693 9.53685 0.563027 3.31668e-07
4 1 8.99263 7.17778 0.182072 -1.00449e-06
5 1 6.30622 7.16771 0.0991164 -3.47598e-07
6 1 9.03555 8.51494 2.47831 -1.16529e-06
7 1 2.38876 9.41828 0.507201 8.12232e-07
8 1 3.71072 7.14893 0.158867 -6.14974e-07
9 1 1.07649 7.1456 0.0854835 8.79701e-07
10 1 5.07765 9.468 0.551164 -5.60102e-07
11 1 5.08771 10.7508 2.93816 1.62918e-06
12 1 6.42621 8.49255 2.53314 -2.01972e-06
13 1 3.76541 8.41863 2.46734 1.16818e-06
14 1 7.66277 10.734 2.90172 7.36655e-07
15 1 9.00126 9.72439 4.82562 -2.96116e-06
16 1 6.48517 9.74574 4.85121 -1.02087e-06
18 1 10.2919 9.43811 0.518806 -1.20316e-06
19 1 10.3201 10.7152 2.92217 8.09651e-07
20 1 1.11476 8.32306 2.43211 -2.6819e-07
21 1 2.42576 10.6445 2.83686 2.89458e-07
22 1 3.83396 9.82287 4.90554 -4.21674e-07
23 1 1.24431 9.75084 4.83615 -1.7593e-06
42 1 5.19286 7.53438 4.50303 1.32706e-06
45 1 7.76184 7.48244 4.57721 2.13864e-06
51 1 10.4057 7.52352 4.48939 2.75892e-06
53 1 2.57682 7.45493 4.6373 9.90965e-07
55 1 3.85701 6.58152 6.42956 -2.436e-06
56 1 1.17404 6.47621 6.50334 -1.62584e-06
27 1 5.04144 4.9127 12.6625 1.37312e-06
28 1 6.44234 2.67178 12.3772 -1.6605e-06
29 1 3.65337 2.6168 12.2258 1.02832e-06
30 1 7.70569 5.0128 12.7532 2.36422e-07
35 1 10.2637 5.01162 12.6967 4.6668e-08
36 1 1.05253 2.71901 12.3847 9.41945e-07
37 1 2.42724 4.90284 12.6998 -9.55566e-07
70 1 8.95527 2.59509 12.2618 -1.07548e-07
90 1 7.77296 5.53975 8.49345 1.46307e-06
91 1 9.07895 3.36122 8.07147 -3.58612e-06
92 1 6.31302 3.39868 8.16897 -1.10741e-06
93 1 9.03882 4.50641 10.475 -4.68536e-07
98 1 2.42055 5.59186 8.45763 2.74346e-06
99 1 3.78197 3.45974 8.11219 -1.13756e-06
100 1 1.14763 3.42071 8.16058 -1.07263e-06
101 1 5.06949 5.60666 8.41367 9.84467e-07
103 1 6.43474 4.59011 10.4575 -1.39798e-06
104 1 3.86094 4.64914 10.4316 -6.8109e-07
106 1 10.3361 5.56504 8.48828 -3.61227e-07
108 1 1.27971 4.5439 10.5245 -1.45956e-07
113 1 5.14159 1.17087 7.68077 1.50084e-06
114 1 7.71442 1.21931 7.6456 3.90881e-07
115 1 7.67409 2.33707 10.0752 1.71999e-06
116 1 9.06209 0.112504 9.67404 5.2301e-07
117 1 6.43427 0.0683747 9.70946 -1.81417e-06
119 1 10.4151 1.25398 7.69855 3.70412e-06
120 1 2.48774 1.29456 7.66984 2.42368e-06
121 1 2.47677 2.35271 9.97261 1.16031e-06
122 1 3.74321 0.130997 9.68776 -1.38721e-06
123 1 1.06785 0.169981 9.65177 1.05168e-06
124 1 5.13788 2.26286 10.1108 1.33092e-06
125 1 10.3986 2.42202 10.0093 -6.93963e-07
71 1 2.51343 11.3348 11.6669 1.39443e-08
72 1 5.12083 11.224 11.5725 8.39941e-07
79 1 10.3928 11.2124 11.664 1.70254e-06
2 1 7.7262 11.3804 11.7616 -3.67226e-07
17 1 9.01923 11.0603 7.33655 -8.44155e-07
24 1 6.39863 10.8447 7.36804 -2.39377e-07
25 1 3.82051 11.0976 7.31309 -1.90642e-06
26 1 1.2108 10.9706 7.3275 -2.48404e-06
46 1 7.728 8.83065 6.90676 9.66201e-07
47 1 9.10404 6.6466 6.51913 -2.9392e-06
48 1 6.49396 6.50481 6.47853 -1.07339e-06
54 1 2.54982 8.74578 6.93509 3.05352e-06
57 1 5.16689 8.68058 6.85269 7.49508e-08
64 1 10.4113 8.83048 6.78772 2.7421e-06
49 1 9.07478 7.75255 8.88432 8.71596e-07
58 1 5.03384 9.93188 9.27808 6.95441e-07
59 1 6.46277 7.7272 8.88042 -1.51031e-06
60 1 3.79306 7.72753 8.87058 -2.12846e-06
61 1 7.75916 9.87293 9.3079 6.96604e-07
62 1 9.08007 9.0571 11.3673 1.14406e-06
63 1 6.47611 8.99611 11.3419 -8.16683e-07
65 1 10.2916 9.95295 9.35864 1.99607e-06
66 1 1.13334 7.75558 8.96961 -1.63998e-06
67 1 2.56629 9.95944 9.31386 2.01769e-06
68 1 3.82955 8.99088 11.2558 -1.94284e-06
69 1 1.29801 9.05358 11.3001 1.49881e-07
102 1 5.1051 6.76104 10.9123 1.40362e-06
105 1 7.83697 6.84935 10.9268 -1.0114e-06
107 1 10.3497 6.76964 10.8708 -6.15003e-07
109 1 2.49677 6.82971 10.9046 1.24308e-06
ITEM: TIMESTEP
3000
ITEM: NUMBER OF ATOMS
125
ITEM: BOX BOUNDS pp pp pp
0.0000000000000000e+00 1.0500000000000000e+01
0.0000000000000000e+00 1.2000000000000000e+01
0.0000000000000000e+00 1.3000000000000000e+01
ITEM: ATOMS id type x y z c_charge
32 1 9.09601 4.07122 1.68364 -4.31998e-07
33 1 6.49003 4.09161 1.69592 -1.68613e-06
34 1 9.04384 5.40648 4.06342 5.29841e-07
39 1 3.80403 4.05474 1.77946 -6.08149e-07
40 1 1.21708 4.02689 1.77159 3.56413e-07
43 1 6.41631 5.23864 4.17415 -1.1576e-06
44 1 3.68618 5.27903 4.16147 -1.62805e-06
52 1 1.16508 5.32424 4.22043 -1.49694e-07
73 1 5.19134 1.8439 1.44939 2.69381e-06
74 1 7.7508 1.92387 1.36301 -3.08456e-06
75 1 7.72517 3.15948 3.6887 6.68417e-07
76 1 9.12293 0.91515 3.34747 -1.83749e-06
77 1 6.48081 0.824986 3.4393 7.24995e-07
78 1 9.07759 2.07896 5.78158 1.19966e-06
80 1 10.3887 1.84637 1.47783 3.4516e-06
81 1 2.49806 1.68245 1.27434 -3.37237e-06
82 1 2.4165 3.16875 3.79047 1.50278e-06
83 1 3.74321 0.998139 3.35378 -2.48544e-07
84 1 1.13002 0.774262 3.38585 -1.33028e-06
85 1 5.12357 3.03699 3.69491 -3.00065e-07
86 1 5.06424 4.38401 6.13469 2.43852e-07
87 1 6.40335 2.07734 5.66782 -1.09545e-06
88 1 3.70272 2.22939 5.75014 1.05698e-07
89 1 7.82019 4.32853 6.02238 2.92873e-06
94 1 10.2521 3.15189 3.81885 -1.97003e-07
95 1 10.4094 4.29246 6.12618 -1.21611e-06
96 1 1.14549 2.02275 5.66812 -1.62945e-06
97 1 2.46985 4.34657 6.24288 1.31638e-07
31 1 7.66125 6.24382 2.12291 1.24285e-06
38 1 2.57347 6.26647 2.08355 1.60751e-06
41 1 5.09696 6.24451 2.15984 -1.03459e-07
50 1 10.4837 6.28733 2.01575 -9.63365e-07
110 1 7.71996 11.9449 5.36857 2.55299e-08
111 1 2.43853 11.8048 5.36153 2.04651e-06
112 1 4.96304 11.9054 5.34511 -9.76264e-07
118 1 10.2857 11.8691 5.36544 6.4036e-07
1 1 9.0847 11.6651 0.841187 -9.43288e-07
3 1 7.71886 9.45267 0.402866 -2.84456e-08
4 1 9.10058 7.18387 0.0721507 1.21073e-06
5 1 6.49922 7.23326 0.101138 7.77276e-07
6 1 9.03288 8.45343 2.49718 6.73977e-07
7 1 2.51946 9.50363 0.547492 6.20319e-07
8 1 3.89947 7.20976 0.158104 -6.37714e-07
9 1 1.32827 7.26903 0.181711 4.03864e-07
10 1 5.07237 9.45897 0.455056 6.5015e-07
11 1 5.05499 10.7594 2.84335 5.7437e-07
12 1 6.37285 8.4433 2.53676 -1.25201e-06
13 1 3.78401 8.47261 2.4903 -1.05087e-06
14 1 7.7281 10.6641 2.80343 -3.05501e-07
15 1 8.98897 9.71244 4.89692 1.55665e-07
16 1 6.31136 9.68986 4.90547 -8.34375e-08
18 1 10.4072 9.44503 0.57403 -1.75589e-06
19 1 10.3785 10.6183 2.83794 -6.87197e-07
20 1 1.15162 8.53881 2.53337 1.07245e-06
21 1 2.52348 10.8366 2.88109 5.79351e-07
22 1 3.69588 9.65681 4.85868 -2.31651e-06
23 1 1.13761 9.78448 4.92703 -1.71549e-06
42 1 4.96048 7.38454 4.64763 1.11879e-06
45 1 7.65457 7.49575 4.46299 -1.22315e-06
51 1 10.3144 7.56167 4.51021 1.05337e-06
53 1 2.37121 7.46687 4.50552 1.50636e-06
55 1 3.73721 6.55349 6.57611 -1.11107e-07
48 1 6.37282 6.5681 6.45309 -1.36862e-06
27 1 5.16629 5.13243 12.7612 -4.16571e-07
28 1 6.4213 2.83352 12.302 -3.00567e-07
29 1 3.91086 2.76398 12.4667 -1.00847e-06
30 1 7.74894 4.96758 12.7135 -5.82987e-07
35 1 10.4841 4.93393 12.6572 -1.19374e-06
36 1 1.27814 2.60299 12.2969 1.59215e-06
37 1 2.53416 4.99389 12.7447 1.32777e-06
70 1 9.16197 2.74421 12.3635 4.53465e-07
90 1 7.69955 5.59318 8.47476 4.46293e-07
91 1 9.05401 3.38989 8.11498 5.92184e-08
92 1 6.50498 3.36995 8.01807 -1.13338e-06
93 1 9.03231 4.58122 10.4991 -1.14547e-06
98 1 2.56107 5.54679 8.60767 -5.46098e-07
99 1 3.84232 3.34254 8.1431 -5.30487e-07
100 1 1.10766 3.25455 8.0931 1.46725e-06
101 1 5.13689 5.57393 8.56396 9.35465e-07
103 1 6.44382 4.55707 10.4582 -3.21739e-07
104 1 3.76905 4.44308 10.5708 1.66206e-08
106 1 10.4319 5.57762 8.52015 -7.14425e-07
108 1 1.10019 4.49948 10.4672 1.56217e-06
113 1 5.09114 1.26657 7.59164 1.69824e-06
114 1 7.68529 1.11883 7.60594 2.20607e-06
115 1 7.74508 2.30335 10.1159 -1.88113e-06
116 1 9.03858 0.164721 9.63276 2.8573e-06
117 1 6.3705 0.18538 9.58086 -2.75558e-06
119 1 10.3151 1.05329 7.70274 -2.83331e-06
120 1 2.4539 1.13737 7.64905 1.175e-06
121 1 2.49114 2.3094 10.1214 -3.57651e-06
122 1 3.89532 0.119191 9.54513 -8.82121e-07
123 1 1.22993 0.231673 9.71642 2.78028e-06
124 1 5.08065 2.34432 10.0425 3.34978e-06
125 1 10.3308 2.2423 10.1211 1.61014e-06
56 1 1.16768 6.5891 6.4937 4.77258e-07
71 1 2.49612 11.581 11.8117 -2.88461e-07
72 1 5.14359 11.2675 11.6293 7.32847e-07
79 1 10.3909 11.4541 11.6663 -1.4186e-06
2 1 7.72357 11.3348 11.625 1.7654e-06
17 1 8.9984 10.7958 7.377 1.12328e-06
24 1 6.39542 10.904 7.18988 -1.37414e-07
25 1 3.74672 10.7969 7.37525 -2.48345e-06
26 1 1.16281 10.9915 7.28668 6.60105e-07
46 1 7.70403 8.60332 6.77982 -7.63546e-07
47 1 8.95687 6.41729 6.49837 -1.45576e-06
54 1 2.44711 8.77538 6.81279 -6.883e-08
57 1 5.04104 8.71381 6.89741 1.42288e-06
64 1 10.316 8.74949 6.88393 6.5988e-07
49 1 9.05492 7.78362 8.86975 1.18896e-06
58 1 5.13392 9.93547 9.28811 1.64034e-06
59 1 6.47297 7.80577 8.80711 3.71185e-07
60 1 3.74433 7.83135 8.94509 -1.79213e-06
61 1 7.71303 10.045 9.3092 -2.65879e-07
62 1 8.99213 9.0798 11.194 2.32484e-07
63 1 6.37058 9.05461 11.3304 -1.61717e-06
65 1 10.3468 10.0489 9.27473 -3.01466e-06
66 1 1.16055 7.82234 8.82656 3.62666e-08
67 1 2.46976 9.99595 9.34898 1.18546e-06
68 1 3.69008 9.09211 11.2611 1.11055e-06
69 1 1.03641 8.99633 11.3412 1.31429e-06
102 1 5.102 6.81417 10.9133 2.06354e-06
105 1 7.66481 6.80634 10.7273 1.01972e-06
107 1 10.3189 6.82311 10.8837 -1.10276e-06
109 1 2.46324 6.8158 10.939 -1.31201e-06
ITEM: TIMESTEP
4000
ITEM: NUMBER OF ATOMS
125
ITEM: BOX BOUNDS pp pp pp
0.0000000000000000e+00 1.0500000000000000e+01
0.0000000000000000e+00 1.2000000000000000e+01
0.0000000000000000e+00 1.3000000000000000e+01
ITEM: ATOMS id type x y z c_charge
32 1 9.08418 4.1056 1.77752 -3.68506e-07
33 1 6.51986 4.05968 1.81427 -6.77014e-07
34 1 8.95775 5.23211 4.19997 -1.22626e-06
39 1 3.82365 3.9274 1.81104 4.42815e-07
40 1 1.27319 3.9804 1.75133 -8.50511e-07
43 1 6.48798 5.32214 4.09022 -1.62934e-06
44 1 3.79561 5.29973 4.21274 -1.42183e-06
52 1 1.11406 5.27047 4.07517 9.25005e-07
73 1 5.10824 1.69688 1.33462 1.66868e-06
74 1 7.89445 1.98218 1.41701 -8.17427e-07
75 1 7.69993 3.15059 3.76132 7.76295e-07
76 1 9.01516 0.944073 3.36609 6.64048e-07
77 1 6.40993 1.00076 3.37048 3.1271e-07
78 1 8.93418 2.06697 5.6815 3.15744e-07
80 1 10.437 1.82682 1.34341 8.75969e-07
81 1 2.62731 1.68902 1.42912 -1.00809e-06
82 1 2.52031 3.16208 3.77571 -1.05521e-06
83 1 3.89406 0.892156 3.47359 -1.87332e-06
84 1 1.16314 1.03896 3.36639 -1.22403e-07
85 1 5.08363 3.12078 3.80751 5.41833e-07
86 1 5.00728 4.22522 6.18642 1.37216e-06
87 1 6.38891 2.06961 5.81914 -5.68924e-07
88 1 3.83261 2.01438 5.77245 -1.06693e-06
89 1 7.65196 4.29111 6.16799 -2.08525e-06
94 1 10.3389 3.08837 3.72944 -7.0212e-07
95 1 10.1524 4.32199 6.1162 -2.4064e-06
96 1 1.12562 2.23458 5.86969 -1.76193e-06
97 1 2.40892 4.21455 6.08708 2.42761e-06
31 1 7.78638 6.28574 2.01883 -3.71807e-07
38 1 2.57438 6.23812 2.19963 2.90565e-06
41 1 5.09714 6.31696 1.99948 1.74169e-06
50 1 10.3377 6.26693 2.12086 -1.13598e-06
110 1 7.60382 11.8677 5.29216 4.5439e-07
111 1 2.35568 11.9717 5.26393 1.11804e-06
112 1 5.15666 11.8481 5.3175 1.65865e-06
118 1 10.3442 11.9433 5.23212 5.74293e-07
1 1 8.92446 11.786 0.89535 3.57817e-06
3 1 7.7136 9.45665 0.513439 -2.86883e-06
4 1 9.14147 7.36323 0.0993504 1.76552e-06
5 1 6.41806 7.29051 0.16009 -4.58536e-07
6 1 9.11513 8.51644 2.51497 -1.02117e-06
7 1 2.5096 9.68022 0.451532 -3.86583e-07
8 1 3.72804 7.33764 0.141617 -1.35554e-06
9 1 1.11934 7.36645 0.0565163 5.17327e-08
10 1 5.25685 9.64174 0.474059 -2.05189e-06
11 1 5.1248 10.7592 2.75775 1.96702e-07
12 1 6.50635 8.43858 2.41854 6.66218e-07
13 1 3.79808 8.55164 2.47829 1.23748e-06
14 1 7.67496 10.7161 2.83794 6.58677e-07
15 1 9.03347 9.59207 4.84657 2.86399e-06
16 1 6.36186 9.67369 4.81892 8.86403e-07
18 1 10.4102 9.60571 0.483615 1.45317e-07
19 1 10.352 10.822 2.83863 -2.19865e-06
20 1 1.17308 8.50104 2.43216 7.35735e-07
21 1 2.38298 10.7525 2.88684 1.19803e-06
22 1 3.74419 9.78387 4.90061 -2.38053e-06
23 1 1.12245 9.6062 4.81633 1.49934e-06
42 1 5.16199 7.53022 4.38657 -5.61647e-07
45 1 7.6913 7.5166 4.48169 -2.5429e-06
51 1 10.3141 7.41738 4.4039 -2.19071e-07
53 1 2.49713 7.52853 4.53646 1.45347e-06
48 1 6.35334 6.50815 6.57855 -3.08863e-07
56 1 1.13158 6.51695 6.45992 -1.18018e-06
27 1 5.19927 4.98471 12.791 9.52869e-07
28 1 6.59079 2.75952 12.4251 -4.24273e-07
29 1 3.90978 2.79563 12.3389 -2.81507e-06
30 1 7.83504 4.98802 12.7038 1.37839e-06
35 1 10.4434 5.04162 12.8107 2.59433e-06
36 1 1.34368 2.86838 12.4072 -1.22248e-06
37 1 2.59777 5.14549 12.8159 2.93914e-06
70 1 9.12943 2.86067 12.4338 -2.04744e-07
90 1 7.71868 5.52802 8.55419 -1.13534e-06
91 1 9.00964 3.18435 8.12289 9.10055e-07
92 1 6.37918 3.22386 8.2369 -1.48352e-06
93 1 9.13278 4.54987 10.5076 -7.45304e-08
98 1 2.33202 5.55821 8.53128 1.87827e-06
99 1 3.77538 3.21125 8.12191 -2.03797e-06
100 1 1.24777 3.34756 8.1755 -5.96574e-07
101 1 5.02218 5.48494 8.55599 -5.90062e-07
103 1 6.43629 4.65736 10.5992 2.14482e-06
104 1 3.79084 4.61286 10.4869 6.11255e-07
106 1 10.2487 5.48749 8.55571 7.14751e-07
108 1 1.21222 4.53444 10.602 -2.74804e-07
113 1 5.08638 1.03378 7.75761 2.13061e-06
114 1 7.69556 1.16239 7.6636 -2.66513e-06
115 1 7.84431 2.3606 10.1442 -2.90469e-06
116 1 9.02663 0.0943248 9.54766 1.3269e-06
117 1 6.42662 0.092351 9.57802 2.97925e-07
119 1 10.3245 1.08413 7.58716 -1.9554e-06
120 1 2.48656 1.0084 7.67677 6.94825e-07
121 1 2.60435 2.28685 10.3217 1.96512e-06
122 1 3.78996 0.193309 9.64353 -1.45603e-06
123 1 1.09808 0.079347 9.5105 -1.47659e-06
124 1 5.15585 2.32665 10.2441 1.00418e-06
125 1 10.4384 2.18963 10.2493 -1.34228e-06
55 1 3.733 6.36513 6.51833 8.27483e-07
71 1 2.42973 11.5495 11.6938 5.38945e-07
72 1 5.08461 11.4339 11.7039 2.10161e-06
79 1 10.2742 11.3693 11.6705 -5.01456e-07
2 1 7.72709 11.1809 11.6366 -9.25207e-07
17 1 9.04515 10.9251 7.17477 1.80457e-06
24 1 6.37785 10.9536 7.22748 1.14797e-06
25 1 3.69455 10.8155 7.10982 -3.20537e-07
26 1 1.07204 10.8071 7.17602 -9.50394e-07
46 1 7.67032 8.76779 6.87204 -3.20183e-06
47 1 8.93021 6.57272 6.43934 1.50715e-06
54 1 2.39208 8.69729 6.92723 1.24927e-06
57 1 5.03833 8.72573 6.74405 2.49806e-06
64 1 10.284 8.71212 6.94736 -1.62382e-06
49 1 8.94753 7.74337 8.90097 3.0165e-06
58 1 4.95402 10.0795 9.25777 -1.42629e-06
59 1 6.31289 7.65737 8.92559 1.13655e-06
60 1 3.7103 7.77015 8.84486 -3.34321e-06
61 1 7.73811 9.91693 9.1661 -8.65568e-07
62 1 9.08322 8.99815 11.2506 4.25119e-07
63 1 6.39375 9.01764 11.1713 1.89751e-06
65 1 10.2338 9.86108 9.19267 -7.83744e-07
66 1 1.16206 7.80975 8.95644 1.72016e-06
67 1 2.52375 9.98319 9.16749 2.7737e-06
68 1 3.866 9.10117 11.3515 1.15818e-06
69 1 1.27204 9.26946 11.2312 -1.79842e-06
102 1 5.07978 6.85548 10.8922 -3.45672e-07
105 1 7.76378 6.76553 10.9128 -3.53828e-06
107 1 10.4232 6.71923 10.8605 -1.0124e-06
109 1 2.48378 6.74383 10.854 9.21388e-07
ITEM: TIMESTEP
5000
ITEM: NUMBER OF ATOMS
125
ITEM: BOX BOUNDS pp pp pp
0.0000000000000000e+00 1.0500000000000000e+01
0.0000000000000000e+00 1.2000000000000000e+01
0.0000000000000000e+00 1.3000000000000000e+01
ITEM: ATOMS id type x y z c_charge
32 1 9.04691 4.03127 1.78479 -5.78266e-07
33 1 6.29593 4.13098 1.7761 5.09071e-07
34 1 9.16902 5.31626 4.17181 -1.67154e-06
39 1 3.73679 4.07014 1.70463 1.1956e-06
40 1 1.18281 4.1192 1.87866 -4.89439e-07
43 1 6.3662 5.27021 4.20516 -5.15389e-07
44 1 3.75618 5.11994 4.02243 -2.41816e-07
52 1 1.30464 5.20527 4.16449 -6.16301e-07
73 1 5.15363 1.80344 1.50713 -1.78018e-06
74 1 7.70415 1.90549 1.47637 1.47653e-06
75 1 7.77525 3.15434 3.84133 9.35082e-07
76 1 9.02643 0.939091 3.32594 -5.27514e-08
77 1 6.40314 0.83286 3.50243 1.79943e-06
78 1 9.06324 2.19354 5.83945 -1.44852e-06
80 1 10.4091 1.82217 1.46464 1.88955e-06
81 1 2.49877 1.92128 1.45671 1.45942e-06
82 1 2.53182 3.05346 3.65768 1.73419e-06
83 1 3.8147 0.973575 3.3559 2.27915e-06
84 1 1.14484 0.915102 3.42438 -2.38614e-06
85 1 5.12887 3.08347 3.69938 -3.12048e-06
86 1 5.05742 4.25317 6.16156 -2.38382e-06
87 1 6.40312 2.07447 5.72153 2.34524e-07
88 1 3.69151 2.19202 5.75871 5.87412e-07
89 1 7.74796 4.21646 6.18685 1.53584e-06
94 1 10.4314 3.13377 3.75693 2.33766e-06
95 1 10.4686 4.19509 6.16646 2.32997e-06
96 1 1.1398 1.99846 5.6616 -2.29761e-07
97 1 2.57877 4.33707 6.32932 -4.42818e-07
31 1 7.65918 6.31146 2.27816 1.09382e-06
38 1 2.41236 6.27492 2.0126 -7.00974e-07
41 1 5.1008 6.36582 2.16569 -2.249e-06
50 1 10.3463 6.34011 2.24165 2.44117e-07
110 1 7.773 11.9151 5.31111 2.56336e-07
111 1 2.62159 11.8496 5.28544 3.46733e-08
112 1 5.11746 11.9083 5.27655 -6.66523e-07
118 1 10.397 11.9141 5.34263 2.62952e-06
1 1 8.96608 11.8456 0.808896 -2.8797e-07
3 1 7.79449 9.50953 0.487388 -2.40569e-07
4 1 9.02346 7.25826 0.215006 -2.99841e-07
5 1 6.43519 7.34121 0.222696 3.73795e-07
6 1 9.02132 8.50413 2.46994 -1.70088e-06
7 1 2.49128 9.64152 0.38198 -9.29381e-07
8 1 3.86981 7.41334 0.093415 1.73268e-07
9 1 1.20166 7.42699 0.144588 -4.49997e-08
10 1 5.14217 9.51914 0.429024 8.62794e-07
11 1 5.12274 10.8335 2.88905 2.31406e-06
12 1 6.2831 8.61662 2.4838 1.46404e-06
13 1 3.78324 8.42395 2.45448 6.85624e-07
14 1 7.78006 10.7494 2.86142 -7.96654e-07
15 1 9.02423 9.77027 4.81232 -1.35351e-06
16 1 6.45439 9.77787 4.85279 1.96997e-06
18 1 10.4266 9.56627 0.389251 9.21197e-07
19 1 10.388 10.8037 2.85635 2.35382e-06
20 1 1.23321 8.58717 2.57112 -1.09245e-06
21 1 2.4892 10.7549 2.67021 -1.57504e-06
22 1 3.83758 9.64155 4.75181 1.00412e-06
23 1 1.18411 9.79982 4.75133 -2.63126e-06
42 1 5.10255 7.65484 4.46007 -3.94208e-07
45 1 7.84294 7.5736 4.5596 -4.37813e-08
51 1 10.4198 7.57986 4.51507 -3.05922e-07
53 1 2.46471 7.42364 4.33809 -7.02439e-07
56 1 1.14282 6.4123 6.51182 -4.61861e-07
47 1 9.026 6.34991 6.56859 -2.8996e-06
27 1 5.03965 5.077 12.7075 7.49375e-07
28 1 6.42006 2.88858 12.4286 -3.3464e-07
29 1 3.74587 2.7804 12.4113 3.54077e-07
30 1 7.73651 5.06551 12.9005 3.83812e-07
35 1 10.3984 5.21004 12.7791 -1.28438e-06
36 1 1.1411 2.90365 12.3637 -1.34334e-06
37 1 2.44373 5.08492 12.6593 1.157e-06
70 1 9.07327 2.64268 12.4737 -2.10155e-07
90 1 7.69573 5.43939 8.58217 7.23532e-07
91 1 8.95174 3.30491 8.31189 -3.22943e-06
92 1 6.33435 3.15577 8.23785 1.62482e-06
93 1 8.97966 4.53259 10.5929 -2.56132e-06
98 1 2.5764 5.49695 8.54095 -2.17997e-06
99 1 3.67629 3.32836 8.30412 6.52383e-07
100 1 1.0961 3.28164 8.15899 -2.21996e-06
101 1 5.12364 5.53972 8.40967 6.35178e-07
103 1 6.35952 4.4231 10.5291 1.67401e-06
104 1 3.81739 4.47246 10.5881 2.14628e-06
106 1 10.3605 5.48668 8.54724 3.39806e-06
108 1 1.19662 4.66004 10.4463 -1.10399e-06
113 1 5.09497 1.10051 7.70437 -8.3893e-07
114 1 7.70094 1.12197 7.71202 1.7802e-06
115 1 7.70684 2.15161 10.2374 2.91725e-06
116 1 9.00313 0.10618 9.57099 -2.34702e-06
117 1 6.36205 0.0462396 9.57103 -2.75701e-06
119 1 10.2803 1.11516 7.7367 -1.05735e-06
120 1 2.37051 1.26806 7.69094 -9.21639e-07
121 1 2.41547 2.10436 10.1216 1.14826e-06
122 1 3.72229 11.9543 9.52387 8.55732e-07
123 1 1.16577 0.0880872 9.50192 -2.057e-06
124 1 5.00485 2.07349 10.2222 -2.49811e-06
125 1 10.2169 2.29273 10.1555 -1.34841e-06
48 1 6.45548 6.43867 6.4599 8.25193e-07
55 1 3.80461 6.58049 6.43624 1.62544e-06
71 1 2.44918 11.4099 11.6202 -9.76963e-09
72 1 5.01824 11.5457 11.6904 -1.23401e-06
79 1 10.3017 11.3574 11.5325 -2.88925e-07
2 1 7.75185 11.3697 11.5805 1.657e-06
17 1 9.02122 10.8599 7.27471 -2.21397e-06
24 1 6.40164 10.8483 7.23137 1.19229e-07
25 1 3.82156 11.0602 7.34637 6.8653e-07
26 1 1.125 10.8312 7.26996 3.84775e-07
46 1 7.74767 8.7054 6.82102 6.31666e-07
54 1 2.44872 8.72622 6.73636 -1.41927e-06
57 1 5.05283 8.80605 6.80113 -8.91661e-07
64 1 10.3076 8.6729 6.7194 1.67994e-06
49 1 9.04625 7.73628 8.79011 -9.92123e-07
58 1 5.24905 9.81128 9.24461 -1.58309e-06
59 1 6.50814 7.59325 8.84238 -5.87385e-07
60 1 3.88003 7.69947 8.89165 2.02227e-06
61 1 7.8529 9.81474 9.27494 8.82081e-07
62 1 9.07106 9.12894 11.3069 -8.45482e-07
63 1 6.39731 9.03003 11.2753 -1.88693e-06
65 1 10.3473 9.85494 9.17727 2.47776e-06
66 1 1.16242 7.65351 8.77997 3.64632e-07
67 1 2.41668 9.76724 9.11406 -1.06023e-06
68 1 3.79737 9.27815 11.0852 1.96412e-06
69 1 1.13522 9.09603 11.2433 4.41702e-07
102 1 5.10763 6.73973 10.7321 2.3791e-08
105 1 7.70691 6.78948 10.9299 2.40771e-06
107 1 10.3176 6.8761 10.9366 2.48464e-06
109 1 2.47703 6.93196 10.8679 -9.23408e-07
ITEM: TIMESTEP
6000
ITEM: NUMBER OF ATOMS
125
ITEM: BOX BOUNDS pp pp pp
0.0000000000000000e+00 1.0500000000000000e+01
0.0000000000000000e+00 1.2000000000000000e+01
0.0000000000000000e+00 1.3000000000000000e+01
ITEM: ATOMS id type x y z c_charge
32 1 9.01064 4.19899 1.85457 -1.8209e-06
33 1 6.43178 4.13268 1.77793 -1.16469e-06
34 1 8.98057 5.3392 4.10125 -1.89102e-06
39 1 3.79691 4.11444 1.79258 -1.65135e-06
40 1 1.1897 4.14633 1.75935 -1.6483e-07
43 1 6.5057 5.23482 4.15874 -1.90037e-06
44 1 3.83329 5.35764 4.18483 4.54193e-07
52 1 1.05926 5.36002 4.10537 -1.38308e-06
73 1 4.94177 1.92571 1.50633 8.57479e-07
74 1 7.72258 1.88449 1.48686 1.49061e-07
75 1 7.74643 3.09778 3.84491 1.78762e-06
76 1 9.11911 0.81475 3.3387 -6.48902e-07
77 1 6.38889 0.945601 3.44222 -8.56478e-07
78 1 9.05179 2.13221 5.72651 -1.88383e-07
80 1 10.1869 2.01951 1.49521 -1.44438e-07
81 1 2.34229 1.76174 1.38061 -9.87093e-08
82 1 2.40866 3.15819 3.75697 -7.4644e-07
83 1 3.81528 0.914525 3.45682 1.32318e-06
84 1 1.13368 0.890648 3.43182 1.08714e-07
85 1 5.07534 3.2442 3.73763 1.7403e-06
86 1 5.23114 4.39968 6.13937 -7.61417e-07
87 1 6.49668 2.2052 5.73548 -1.68263e-07
88 1 3.84902 2.07005 5.71694 -7.29549e-07
89 1 7.75128 4.37049 6.23003 1.74082e-06
94 1 10.3294 3.11755 3.82436 1.12049e-07
95 1 10.3227 4.31507 6.28417 1.50317e-06
96 1 1.22526 2.07777 5.80105 1.8943e-06
97 1 2.51262 4.33231 6.09815 1.05147e-06
31 1 7.84214 6.32327 2.0852 6.7108e-07
38 1 2.50819 6.41316 2.22312 -5.01291e-08
41 1 5.16472 6.25711 2.15068 -1.2392e-06
50 1 10.4437 6.27892 2.00273 6.37611e-07
110 1 7.73041 11.9114 5.30195 1.71717e-06
111 1 2.42728 11.9679 5.39983 -1.9969e-06
112 1 5.11936 11.8933 5.32171 1.79402e-06
118 1 10.3952 11.9129 5.30742 3.23499e-07
1 1 9.1084 11.8968 0.82625 5.15851e-07
3 1 7.61649 9.66294 0.474949 1.57102e-07
4 1 8.98542 7.2371 0.112165 -1.09388e-06
5 1 6.44264 7.3165 0.0884979 -1.08087e-06
6 1 9.02693 8.61945 2.53321 5.00681e-09
7 1 2.39421 9.35773 0.497188 8.77286e-07
8 1 3.78629 7.24452 0.134425 5.7966e-08
9 1 1.09686 7.15325 0.0103086 -4.97125e-07
10 1 5.02585 9.59684 0.522688 -1.12147e-06
11 1 5.18695 10.7787 2.79331 -7.22292e-07
12 1 6.48334 8.38408 2.55347 -1.7956e-06
13 1 3.87433 8.58132 2.51154 -2.17983e-06
14 1 7.69324 10.9256 2.80627 8.07904e-07
15 1 9.12337 9.83203 4.89917 -1.33541e-06
16 1 6.46901 9.75206 4.81586 -1.69531e-06
18 1 10.2 9.57615 0.44602 6.12027e-07
19 1 10.4185 10.7992 2.79761 1.1588e-06
20 1 1.13959 8.44154 2.44191 -3.12309e-07
21 1 2.50043 10.8146 2.77835 2.2958e-07
22 1 3.87499 9.7634 4.7185 8.04837e-07
23 1 1.14161 9.74797 4.7397 1.02733e-06
42 1 5.09472 7.43809 4.4987 2.09239e-07
45 1 7.81518 7.49278 4.517 -9.67169e-07
51 1 10.3871 7.54762 4.50973 1.20574e-06
53 1 2.52359 7.68112 4.42817 -5.55627e-07
56 1 1.23384 6.50948 6.5382 -4.14586e-08
48 1 6.50932 6.50737 6.57747 -1.36316e-06
55 1 3.87306 6.43011 6.59049 -1.55334e-06
27 1 5.12349 5.0064 12.7378 1.12018e-06