ITEM: TIMESTEP
1000
ITEM: NUMBER OF ATOMS
125
ITEM: BOX BOUNDS pp pp mm
0.0000000000000000e+00 1.0500000000000000e+01
0.0000000000000000e+00 1.2000000000000000e+01
-8.1934393385901927e-01 1.3000000000000000e+01
ITEM: ATOMS id type x y z c_charge
27 1 5.02259 5.21508 -0.134699 2.60566e-06
28 1 6.31552 2.96258 -0.44121 -4.27757e-07
29 1 3.72632 3.11606 -0.536101 -2.88976e-06
30 1 7.65059 5.18339 -0.0832682 -8.90452e-08
32 1 8.95281 4.13652 1.86842 3.5359e-06
33 1 6.30859 4.11485 1.90679 -1.41763e-06
34 1 9.05145 5.36432 4.06071 -6.79053e-07
35 1 10.2412 5.18207 -0.0655586 -1.43435e-06
36 1 1.06222 3.0739 -0.587882 1.02898e-06
37 1 2.37955 5.24211 -0.162171 3.65803e-06
39 1 3.71508 4.1848 1.77547 -9.23609e-07
40 1 1.11526 4.1272 1.78223 -2.11162e-06
43 1 6.37686 5.36162 4.12775 1.2555e-06
44 1 3.77048 5.39406 4.0619 7.82844e-07
52 1 1.18099 5.33535 4.07634 1.91609e-06
70 1 8.91966 2.96944 -0.496373 -1.46196e-06
72 1 4.93113 0.786577 -0.820552 1.15605e-06
73 1 4.99166 1.98316 1.51924 1.32649e-06
74 1 7.65429 2.00721 1.43147 7.93274e-07
75 1 7.66961 3.16702 3.80222 1.24152e-06
76 1 9.03287 1.03128 3.39856 -5.31383e-07
77 1 6.3969 0.847612 3.40737 6.20332e-07
78 1 9.05259 2.16049 5.72691 6.39447e-07
80 1 10.3617 1.99825 1.38144 1.54485e-07
81 1 2.40294 2.00248 1.32609 -2.92703e-07
82 1 2.45164 3.16634 3.6847 -1.22207e-06
83 1 3.73561 0.928098 3.35419 -2.03171e-06
84 1 1.19512 0.976579 3.29455 9.05658e-07
85 1 5.00988 3.09242 3.75117 -1.22862e-08
86 1 5.14919 4.25832 5.96335 4.81835e-07
87 1 6.36614 2.06237 5.7107 -2.86213e-06
88 1 3.80924 2.0232 5.63151 2.08051e-06
89 1 7.72434 4.3096 5.99794 -7.93085e-07
94 1 10.2866 3.12339 3.75321 -1.6211e-06
95 1 10.3806 4.36962 6.01179 1.54993e-06
96 1 1.23725 2.08021 5.59453 -1.65113e-06
97 1 2.50759 4.29864 6.00976 6.57064e-07
31 1 7.74784 6.31434 2.1668 -2.84335e-06
38 1 2.41613 6.40151 2.12332 1.12121e-06
41 1 5.08762 6.38391 2.13412 -3.40274e-08
50 1 10.3013 6.3881 2.0946 3.38992e-07
71 1 3.82568 11.7162 1.11351 -1.26556e-06
79 1 1.18199 11.7629 1.03335 -2.24542e-06
110 1 7.78525 11.9206 5.26004 -2.05517e-06
111 1 2.4206 11.881 5.26275 -1.89903e-06
112 1 5.04225 11.8766 5.27566 1.93425e-06
118 1 10.3852 11.9496 5.22753 3.25316e-06
1 1 9.0418 11.8171 1.08065 2.03723e-06
2 1 6.45574 11.7762 1.07347 -7.32386e-07
3 1 7.75491 9.55294 0.620404 -2.03856e-06
4 1 9.00247 7.44731 0.189372 -1.74152e-07
5 1 6.42853 7.42685 0.271338 2.48374e-06
6 1 9.03903 8.59592 2.54275 1.80265e-06
7 1 2.50877 9.59531 0.59254 5.51016e-07
8 1 3.84613 7.43503 0.0625183 -3.15646e-06
9 1 1.07581 7.44644 0.195415 2.8471e-07
10 1 5.11545 9.54749 0.539406 2.14727e-06
11 1 5.11679 10.6203 2.88885 -2.27735e-07
12 1 6.3928 8.56028 2.48462 3.45373e-07
13 1 3.86016 8.58534 2.47093 1.92329e-06
14 1 7.77903 10.7967 2.94974 1.91701e-06
15 1 9.11384 9.7034 4.88965 6.11191e-07
16 1 6.48733 9.71896 4.87103 2.84706e-07
18 1 10.342 9.67049 0.582172 7.95752e-07
19 1 10.3612 10.7638 2.93088 -3.76915e-06
20 1 1.17625 8.59365 2.51305 -4.72232e-07
21 1 2.49564 10.6981 2.96367 1.17495e-06
22 1 3.79368 9.64551 4.80657 -2.80461e-06
23 1 1.12906 9.70983 4.9112 4.19696e-07
42 1 5.11685 7.52344 4.42318 3.4078e-07
45 1 7.7258 7.49897 4.42564 6.03923e-07
51 1 10.3459 7.47366 4.47408 -9.22697e-07
53 1 2.43679 7.54986 4.3571 2.50263e-07
90 1 7.73672 5.45568 8.33925 6.54088e-07
91 1 9.07955 3.26408 8.02091 -2.28082e-06
92 1 6.46206 3.21192 7.89305 1.70178e-06
93 1 8.96172 4.35287 10.2896 1.98417e-06
98 1 2.54933 5.44782 8.33947 -1.09287e-06
99 1 3.83906 3.18962 7.89922 -4.1023e-06
100 1 1.19311 3.20727 7.87169 3.48487e-06
101 1 5.10497 5.34697 8.32433 2.44027e-06
103 1 6.33338 4.32006 10.1191 -3.59085e-06
104 1 3.71766 4.28324 10.2943 2.24488e-06
106 1 10.3421 5.48247 8.32813 -2.30812e-06
108 1 1.06546 4.36987 10.1261 6.86778e-07
113 1 5.10421 1.00808 7.56833 -1.22974e-06
114 1 7.82966 1.03174 7.59966 9.92551e-07
115 1 7.69721 2.24677 9.90922 -2.28316e-06
119 1 10.3776 1.05003 7.57114 -3.41072e-06
120 1 2.50788 0.954664 7.57586 3.41512e-06
121 1 2.36927 2.15865 9.86066 -1.10546e-06
124 1 5.10569 2.21108 9.73981 1.83876e-06
125 1 10.3641 2.12793 9.86548 -1.77376e-06
17 1 9.10004 10.7915 7.19679 1.84648e-06
24 1 6.51862 10.9653 7.15113 -1.73912e-06
25 1 3.78694 10.7407 7.20509 -9.44856e-07
26 1 1.18075 10.8307 7.12885 -1.62311e-06
46 1 7.78226 8.69393 6.83852 -1.20568e-06
47 1 9.07228 6.4449 6.43094 2.11512e-06
48 1 6.40109 6.53045 6.39338 -5.77053e-07
54 1 2.48209 8.59742 6.73598 2.39385e-06
55 1 3.77545 6.5059 6.34899 -1.57669e-06
56 1 1.19545 6.54044 6.36804 -2.27333e-06
57 1 5.13324 8.7157 6.8571 1.19826e-06
64 1 10.3899 8.61074 6.87062 6.25739e-07
116 1 9.11859 11.9197 9.52742 8.09209e-07
117 1 6.41205 11.9957 9.56113 -1.61343e-06
122 1 3.81711 11.8603 9.57942 -9.17824e-07
123 1 1.19797 11.8946 9.49206 2.98e-06
49 1 9.02964 7.63016 8.78546 1.09535e-06
58 1 5.14486 9.83968 9.10841 1.76521e-06
59 1 6.40092 7.69111 8.70735 7.94462e-07
60 1 3.80557 7.66358 8.69047 -2.95283e-06
61 1 7.76652 9.8622 9.10664 -3.40158e-06
62 1 8.93633 8.87479 11.0605 3.34794e-06
63 1 6.3811 8.72638 11.0051 -9.44072e-07
65 1 10.3877 9.7821 9.13485 -1.84811e-06
66 1 1.25442 7.5283 8.72888 3.52698e-06
67 1 2.49006 9.72522 9.12806 6.57591e-07
68 1 3.74071 8.69398 10.9936 8.20003e-07
69 1 1.11884 8.66833 11.0657 -6.21499e-07
102 1 5.05558 6.50717 10.58 2.06134e-07
105 1 7.6666 6.56357 10.6877 7.85121e-07
107 1 10.2775 6.56561 10.699 -2.3673e-06
109 1 2.46738 6.46523 10.6129 -5.44248e-07
ITEM: TIMESTEP
2000
ITEM: NUMBER OF ATOMS
125
ITEM: BOX BOUNDS pp pp mm
0.0000000000000000e+00 1.0500000000000000e+01
0.0000000000000000e+00 1.2000000000000000e+01
-9.5087418962606596e-01 1.3000000000000000e+01
ITEM: ATOMS id type x y z c_charge
27 1 5.00821 5.21347 -0.211562 -1.51135e-06
28 1 6.35388 2.98349 -0.502625 5.55775e-07
29 1 3.67583 2.98541 -0.536655 9.64573e-07
30 1 7.70793 5.1862 -0.143621 3.41804e-07
32 1 8.98572 4.19649 1.79888 1.67414e-06
33 1 6.40476 4.20805 1.75669 2.45458e-07
34 1 8.99342 5.30143 4.12932 2.96044e-06
35 1 10.2721 5.22399 -0.223211 -1.66687e-06
36 1 1.10396 2.92126 -0.463492 -3.35434e-07
37 1 2.4145 5.1396 -0.244796 1.50724e-06
39 1 3.7811 4.14529 1.72905 -7.47015e-07
40 1 1.16289 4.19224 1.69746 1.55993e-06
43 1 6.44448 5.36842 4.06456 4.601e-07
44 1 3.84499 5.28555 4.01053 1.29626e-06
52 1 1.19301 5.35977 4.06899 2.9985e-06
70 1 8.94234 2.87101 -0.457157 5.09976e-07
72 1 4.88911 0.731988 -0.952648 -1.98934e-06
73 1 5.05407 2.01753 1.40709 -1.19084e-06
74 1 7.62975 2.00421 1.46358 -1.16126e-06
75 1 7.77233 3.14342 3.71842 -1.35031e-07
76 1 8.98718 0.850384 3.37403 1.49563e-06
77 1 6.34468 0.947045 3.35954 1.13388e-06
78 1 9.05658 2.04145 5.5841 1.3862e-06
80 1 10.3484 2.02089 1.45787 -3.26092e-07
81 1 2.48975 1.97987 1.49557 -1.11591e-06
82 1 2.47229 3.04588 3.65948 8.5014e-08
83 1 3.80306 0.925305 3.43465 -1.27244e-06
84 1 1.13221 0.908509 3.39701 -1.27237e-06
85 1 5.17433 3.19598 3.68081 9.53824e-07
86 1 5.13058 4.27565 5.99998 1.49515e-06
87 1 6.43699 2.08011 5.66105 -4.61246e-07
88 1 3.84465 2.07211 5.61639 -1.47726e-06
89 1 7.6888 4.29773 6.0485 -3.38064e-06
94 1 10.3858 3.14338 3.66692 -3.21074e-06
95 1 10.3934 4.26164 5.98908 -2.4381e-06
96 1 1.14984 2.08225 5.67484 2.06041e-06
97 1 2.49994 4.2678 5.85486 -1.1086e-06
31 1 7.72504 6.40746 2.20883 -2.1034e-06
38 1 2.43173 6.34389 2.19869 -7.97076e-07
41 1 5.08361 6.41777 2.1327 4.42992e-08
50 1 10.3327 6.31918 2.20446 -4.06631e-06
71 1 3.66614 11.7713 1.09637 7.09634e-07
79 1 1.08324 11.8614 0.994336 9.24226e-07
110 1 7.69656 11.8472 5.29408 -1.45716e-06
111 1 2.44631 11.8649 5.29977 1.00544e-06
112 1 5.22929 11.9024 5.33335 5.87717e-07
118 1 10.4093 11.8588 5.32323 -1.4879e-06
1 1 9.02571 11.8751 0.925263 2.31662e-06
2 1 6.33139 11.9334 1.03673 3.20232e-06
3 1 7.69204 9.76697 0.645863 -1.45047e-06
4 1 8.967 7.37296 0.32365 1.37822e-07
5 1 6.29732 7.49982 0.133528 8.83077e-07
6 1 9.03696 8.53693 2.53421 3.92891e-06
7 1 2.37104 9.62843 0.59606 -1.77206e-06
8 1 3.66843 7.39445 0.266037 7.11911e-08
9 1 1.08605 7.35783 0.170109 2.27414e-06
10 1 5.08891 9.73993 0.673742 -4.0407e-07
11 1 5.09159 10.7541 2.98424 -2.77235e-06
12 1 6.41238 8.59879 2.55386 9.67031e-07
13 1 3.76522 8.63271 2.54906 1.8674e-06
14 1 7.69268 10.778 2.94105 -5.34461e-07
15 1 8.99888 9.71179 4.89293 5.66956e-07
16 1 6.46217 9.70911 4.88726 2.41491e-06
18 1 10.2663 9.6097 0.626515 1.00105e-08
19 1 10.2892 10.7467 2.965 -3.80898e-07
20 1 1.15417 8.49033 2.53174 2.61964e-07
21 1 2.44163 10.6652 2.93795 1.40307e-06
22 1 3.78392 9.71694 4.88243 -1.54239e-06
23 1 1.18705 9.69291 4.89056 -9.96015e-07
42 1 5.14636 7.50806 4.38089 2.49945e-07
45 1 7.75555 7.53077 4.52543 -6.01899e-06
51 1 10.4115 7.53712 4.49202 -1.61404e-07
53 1 2.55005 7.44898 4.54472 -1.44736e-06
90 1 7.74168 5.4031 8.34792 -1.14556e-06
91 1 9.05976 3.24477 7.90255 3.71854e-06
92 1 6.32077 3.24099 8.06687 1.13928e-06
93 1 9.10138 4.4017 10.1784 5.82196e-07
98 1 2.40186 5.42534 8.23701 -9.64487e-08
99 1 3.81306 3.20878 7.90336 1.48658e-06
100 1 1.17441 3.26125 7.99974 8.20069e-07
101 1 5.12326 5.42744 8.29121 -1.04022e-06
103 1 6.4733 4.33972 10.3804 9.96062e-07
104 1 3.86658 4.46208 10.0494 -1.11744e-06
106 1 10.3275 5.46889 8.25303 6.35447e-07
108 1 1.27398 4.32955 10.3076 1.43327e-06
113 1 5.17422 1.05093 7.54827 9.14289e-07
114 1 7.72485 1.03804 7.53292 -2.73833e-06
115 1 7.75074 2.18581 9.86097 -3.38523e-07
119 1 10.4012 1.07821 7.61858 -1.16359e-06
120 1 2.454 1.08499 7.49246 -1.31178e-06
121 1 2.55193 2.19962 9.79952 1.13876e-06
124 1 5.16543 2.09893 10.0071 -3.9998e-07
125 1 10.3553 2.26572 9.81988 -2.11049e-06
17 1 9.00074 10.9055 7.23612 4.40932e-07
24 1 6.38152 10.7232 7.21333 -1.20103e-06
25 1 3.80063 10.9449 7.19043 -2.30082e-07
26 1 1.15872 10.8268 7.21817 2.93602e-07
46 1 7.72121 8.69031 6.85514 -2.4009e-06
47 1 9.10743 6.52859 6.39724 4.11043e-06
48 1 6.46201 6.45196 6.33752 3.7903e-06
54 1 2.50175 8.6673 6.84369 1.95963e-06
55 1 3.84012 6.53142 6.3161 -2.31403e-06
56 1 1.20789 6.43173 6.36609 -2.91534e-07
57 1 5.12848 8.59718 6.774 -1.72413e-06
64 1 10.3661 8.66357 6.72809 -1.04175e-06
116 1 9.0471 11.908 9.56642 -4.23129e-07
117 1 6.43456 11.842 9.4823 -2.28633e-07
122 1 3.76062 11.9764 9.47136 3.16075e-06
123 1 1.10034 2.77382e-05 9.56421 2.33956e-06
49 1 9.01421 7.56725 8.71985 -3.50002e-07
58 1 4.99453 9.68256 9.02718 8.95028e-08
59 1 6.41868 7.57807 8.70693 -4.57278e-07
60 1 3.76759 7.53941 8.68708 1.23868e-06
61 1 7.72069 9.6623 9.08742 2.44835e-06
62 1 9.04866 8.69168 11.1068 -1.15198e-06
63 1 6.35468 8.77054 11.112 -2.26113e-07
65 1 10.2634 9.77399 9.11573 -2.31068e-06
66 1 1.13287 7.61543 8.68888 -6.81322e-07
67 1 2.54207 9.79123 9.10852 -7.1331e-07
68 1 3.7946 8.7515 11.0071 -6.94098e-08
69 1 1.24032 8.85098 11.0682 8.57773e-07
102 1 5.08861 6.5283 10.6489 -2.36498e-07
105 1 7.75257 6.60034 10.6967 1.78096e-06
107 1 10.399 6.53194 10.6077 -2.47659e-06
109 1 2.4427 6.5836 10.6135 -7.02368e-07
ITEM: TIMESTEP
3000
ITEM: NUMBER OF ATOMS
125
ITEM: BOX BOUNDS pp pp mm
0.0000000000000000e+00 1.0500000000000000e+01
0.0000000000000000e+00 1.2000000000000000e+01
-9.5111012856409738e-01 1.3000000000000000e+01
ITEM: ATOMS id type x y z c_charge
27 1 5.11737 5.24972 -0.167226 3.74139e-07
28 1 6.39185 2.9155 -0.500381 2.67452e-06
29 1 3.75352 2.96656 -0.433536 -5.12163e-07
30 1 7.67156 5.21814 -0.223737 -6.02775e-07
32 1 9.03022 4.24296 1.78386 2.34706e-06
33 1 6.37044 4.15884 1.72859 -1.07787e-08
34 1 9.03324 5.35031 3.98469 -6.68525e-07
35 1 10.3776 5.13829 -0.144372 -9.2454e-07
36 1 1.13829 2.81527 -0.48193 4.05065e-07
37 1 2.48395 5.25439 -0.11787 2.76489e-06
39 1 3.77122 4.19679 1.8027 -2.12847e-06
40 1 1.13829 4.20885 1.85391 -1.11278e-06
43 1 6.40755 5.27968 4.10974 -4.95884e-07
44 1 3.73734 5.36805 4.1501 3.46962e-07
52 1 1.1796 5.38297 4.13059 3.10809e-07
70 1 9.03563 3.01891 -0.489097 8.76435e-07
72 1 5.0754 0.709201 -0.951921 -1.18472e-06
73 1 5.13839 1.99676 1.41955 -1.29805e-06
74 1 7.6664 2.09056 1.5091 -2.60954e-06
75 1 7.74318 3.2064 3.71148 -4.31599e-07
76 1 9.07047 0.929164 3.40309 3.58319e-06
77 1 6.45717 0.989365 3.34507 1.46854e-06
78 1 9.02962 2.06676 5.67082 6.35752e-07
80 1 10.2866 2.07971 1.51885 7.67946e-07
81 1 2.41066 2.06835 1.50312 4.20175e-06
82 1 2.51184 3.18272 3.78529 7.96824e-07
83 1 3.70796 1.01526 3.30258 -5.07405e-06
84 1 1.12623 0.986392 3.38015 -1.08966e-06
85 1 5.07288 3.10602 3.73834 3.98932e-06
86 1 5.13182 4.25925 6.03427 -2.77893e-06
87 1 6.42466 2.00369 5.68402 -1.02561e-06
88 1 3.71715 2.11077 5.71737 -3.96207e-07
94 1 10.3271 3.17181 3.81184 -2.40621e-06
95 1 10.3468 4.24632 6.06203 3.85542e-06
96 1 1.1713 2.00261 5.64759 3.0611e-07
97 1 2.41315 4.31035 6.1107 -1.1831e-06
31 1 7.66324 6.36381 2.10116 2.50914e-07
38 1 2.47933 6.38479 2.1455 4.07796e-07
41 1 5.09118 6.34613 2.24438 8.33079e-07
50 1 10.3091 6.44154 2.15189 5.18405e-07
71 1 3.69945 11.8998 0.976773 4.79461e-07
79 1 1.10221 11.8946 0.956549 -1.78512e-06
110 1 7.70413 11.9177 5.26864 -8.5447e-07
111 1 2.49579 11.8861 5.29493 2.28394e-06
112 1 5.06442 11.9369 5.24478 1.58677e-06
118 1 10.3073 11.8587 5.1906 -3.22089e-06
1 1 8.91443 11.882 1.02614 -2.16774e-07
2 1 6.366 11.7908 1.02465 1.87693e-06
3 1 7.65012 9.61993 0.597003 1.14075e-06
4 1 9.0402 7.42714 0.166138 -3.42189e-07
5 1 6.37688 7.3668 0.267586 -1.03902e-06
6 1 8.99102 8.55039 2.48526 -1.03877e-06
7 1 2.40384 9.68468 0.752113 -1.26484e-06
8 1 3.78051 7.45999 0.225875 -1.82704e-06
9 1 1.14354 7.44325 0.347507 1.26927e-06
10 1 4.94767 9.70208 0.569483 -1.36749e-06
11 1 5.07382 10.8362 2.93147 -1.08821e-06
12 1 6.31324 8.58203 2.59184 -1.49276e-07
13 1 3.7539 8.53216 2.56069 1.70855e-06
14 1 7.73864 10.7438 2.96765 -2.9725e-06
15 1 9.00851 9.7026 4.82323 3.26496e-06
16 1 6.42113 9.72428 4.84277 2.92963e-06
18 1 10.2675 9.65454 0.62871 8.45174e-07
19 1 10.3296 10.8182 2.88305 2.67361e-06
20 1 1.07358 8.6146 2.56367 -2.1737e-06
21 1 2.49099 10.7798 2.93008 1.34023e-06
22 1 3.73156 9.73283 4.77358 -4.05868e-06
23 1 1.11857 9.75099 4.84523 -1.608e-06
42 1 5.03886 7.4479 4.5668 -2.62119e-06
45 1 7.6586 7.44967 4.4113 -5.9787e-07
51 1 10.2898 7.5402 4.49324 2.72175e-06
53 1 2.44133 7.48458 4.47283 1.4306e-06
89 1 7.81221 4.289 5.94903 -1.4815e-06
90 1 7.77797 5.38668 8.28753 -8.23086e-08
91 1 9.08965 3.18695 8.01916 -3.15238e-06
92 1 6.49278 3.21929 7.86245 2.47901e-06
93 1 9.07073 4.33318 10.2789 -2.4078e-07
98 1 2.56292 5.39805 8.42688 1.04907e-06
99 1 3.84555 3.25603 8.04995 4.86266e-06
100 1 1.14012 3.04392 7.94021 -1.83577e-06
101 1 5.1005 5.40042 8.37984 -4.22305e-06
103 1 6.43613 4.39761 10.1738 1.48561e-06
104 1 3.838 4.34856 10.3944 -6.5959e-07
106 1 10.4587 5.33757 8.32809 1.17608e-06
108 1 1.183 4.38344 10.2145 -1.07539e-06
113 1 5.01404 0.994855 7.56377 -1.73813e-06
114 1 7.61192 0.963901 7.60316 2.22933e-06
115 1 7.7456 2.12243 9.88757 -2.73115e-07
119 1 10.3028 0.916119 7.54703 9.87462e-07
120 1 2.48826 0.980011 7.63234 -2.65801e-06
121 1 2.50288 2.14818 9.91838 6.97185e-07
124 1 5.10903 2.21529 9.80393 -3.34443e-06
125 1 10.4507 2.07598 9.86732 2.00788e-06
17 1 8.99304 10.759 7.1667 1.83758e-06
24 1 6.39163 10.8233 7.13377 -1.61942e-06
25 1 3.79766 10.7499 7.20243 2.768e-07
26 1 1.14553 10.8823 7.05749 2.37263e-06
46 1 7.69952 8.58131 6.70623 -2.37476e-06
47 1 9.01769 6.40733 6.41946 -1.64264e-06
48 1 6.41761 6.42133 6.37459 4.23968e-06
54 1 2.45321 8.60159 6.67848 1.67042e-06
55 1 3.73585 6.43031 6.40796 1.8916e-06
56 1 1.1035 6.45042 6.39914 -3.30377e-06
57 1 5.10467 8.60837 6.76501 6.55578e-07
64 1 10.3491 8.63954 6.72488 7.86003e-07
116 1 8.99684 11.9192 9.51707 -1.15747e-06
117 1 6.38422 0.0134304 9.61845 5.25031e-07
122 1 3.82016 11.8285 9.55134 2.20766e-06
123 1 1.1984 11.884 9.52964 1.7655e-07
49 1 9.06641 7.56729 8.65662 1.99202e-06
58 1 5.15602 9.76752 9.07146 -8.15821e-07
59 1 6.50436 7.60284 8.65228 -1.49156e-06
60 1 3.85219 7.67991 8.66736 -7.04919e-07
61 1 7.77968 9.79363 8.99841 1.44337e-06
62 1 9.12133 8.78316 10.9461 -7.46086e-07
63 1 6.55207 8.82313 10.9907 -8.21337e-07
65 1 10.3312 9.8241 9.039 -9.27877e-07
66 1 1.20488 7.5414 8.67993 6.86622e-07
67 1 2.49778 9.71871 8.97106 -2.30358e-06
68 1 3.78984 8.87562 11.0268 -1.49374e-06
69 1 1.14734 8.79027 10.9663 1.67644e-06
102 1 5.15121 6.61601 10.6326 6.51987e-07
105 1 7.80263 6.55377 10.5313 -1.67113e-06
107 1 10.391 6.63029 10.6161 -9.96636e-07
109 1 2.56339 6.6169 10.6606 -3.35998e-07
ITEM: TIMESTEP
4000
ITEM: NUMBER OF ATOMS
125
ITEM: BOX BOUNDS pp pp mm
0.0000000000000000e+00 1.0500000000000000e+01
0.0000000000000000e+00 1.2000000000000000e+01
-9.3790913620370742e-01 1.3000000000000000e+01
ITEM: ATOMS id type x y z c_charge
27 1 5.09427 5.15811 0.00713066 8.94248e-08
28 1 6.39574 3.07878 -0.470364 6.11009e-07
29 1 3.84512 2.93398 -0.498091 2.47503e-06
30 1 7.73685 5.25543 -0.0539323 -1.50961e-06
32 1 9.02282 4.1201 1.88677 -3.9049e-06
33 1 6.43226 4.15375 1.85361 5.93196e-07
34 1 8.91727 5.26206 4.16769 -1.98619e-06
35 1 10.347 5.24991 -0.0502038 2.37658e-07
36 1 1.16111 3.16979 -0.46246 -2.44067e-06
37 1 2.48806 5.19178 0.0594913 2.21675e-06
39 1 3.73427 4.21126 1.9731 4.08644e-07
40 1 1.12498 4.15363 1.9 -1.34799e-07
43 1 6.35919 5.34929 4.1497 -3.69294e-07
44 1 3.69042 5.36704 4.19105 1.71899e-06
52 1 1.04428 5.28069 4.19932 3.77929e-06
70 1 9.10923 2.9931 -0.557311 1.21463e-06
72 1 5.25623 0.870139 -0.93079 -1.41163e-06
73 1 5.09687 2.08018 1.50089 -8.5399e-07
74 1 7.65901 1.99667 1.3598 -1.59296e-06
75 1 7.63812 3.08285 3.73169 1.33602e-06
76 1 8.99201 0.964621 3.30821 8.28079e-07
77 1 6.33862 0.886837 3.36588 1.36532e-07
78 1 8.97092 1.99802 5.67437 -1.54931e-06
80 1 10.3392 2.06102 1.45634 8.27625e-07
81 1 2.4861 2.0769 1.51453 -1.14661e-06
82 1 2.34779 3.12188 3.83898 -2.37193e-06
83 1 3.80634 0.982161 3.36984 4.95039e-07
84 1 1.0811 0.996594 3.33192 -7.04241e-07
85 1 5.03676 3.09473 3.7757 -4.39934e-07
87 1 6.34257 2.0254 5.69099 6.43152e-07
88 1 3.77937 1.99377 5.68262 1.72848e-06
94 1 10.2034 3.06101 3.76434 -1.48932e-08
96 1 1.09245 2.11777 5.7503 9.86898e-07
89 1 7.60658 4.2179 6.08518 1.0928e-06
31 1 7.69537 6.39735 2.22145 -4.84644e-07
38 1 2.42265 6.41528 2.23693 -1.93196e-06
41 1 5.00891 6.41142 2.10932 -2.27696e-09
50 1 10.3009 6.38854 2.12506 -7.72917e-07
71 1 3.79239 11.9174 1.04485 8.10108e-07
79 1 1.17222 11.9452 0.956569 7.89769e-08
110 1 7.6779 11.8928 5.16446 -1.52781e-06
111 1 2.41077 11.9262 5.21882 -2.82545e-06
112 1 5.04281 11.8249 5.27215 1.05132e-06
118 1 10.3573 11.9544 5.1959 2.61299e-06
1 1 9.1138 11.8432 0.961441 1.33395e-06
2 1 6.44772 11.8894 0.989752 3.48172e-06
3 1 7.7914 9.63309 0.584702 -2.62224e-06
4 1 9.00985 7.49461 0.251539 -3.9966e-07
5 1 6.42587 7.4052 0.241457 -2.83228e-06
6 1 9.02245 8.60598 2.54168 2.56798e-07
7 1 2.49668 9.71713 0.514987 -3.28787e-06
8 1 3.73985 7.43084 0.29184 2.84118e-06
9 1 1.19024 7.4647 0.153804 -2.04972e-06
10 1 5.10866 9.68153 0.555828 2.08896e-06
11 1 4.9644 10.7208 2.87878 -3.45167e-06
12 1 6.40154 8.5551 2.47079 1.16874e-06
13 1 3.67109 8.67821 2.51602 9.36067e-07
14 1 7.65355 10.7868 2.84842 1.2443e-06
15 1 9.07548 9.72748 4.73493 2.31195e-06
16 1 6.34031 9.70433 4.73101 4.64609e-07
18 1 10.3698 9.66089 0.597399 6.10994e-07
19 1 10.2849 10.7916 2.90681 -4.54665e-06
20 1 1.13882 8.60463 2.42713 2.98344e-06
21 1 2.37371 10.8759 2.88275 3.29723e-07
22 1 3.73533 9.71492 4.85344 5.35821e-07
23 1 1.18002 9.75661 4.84013 9.83223e-07
42 1 5.01812 7.49821 4.38838 -1.0006e-06
45 1 7.6126 7.59737 4.45494 -4.61091e-07
51 1 10.3322 7.50047 4.37919 -4.54261e-06
53 1 2.45983 7.55532 4.51352 8.37634e-07
86 1 4.98729 4.28807 6.0927 -3.06274e-06
95 1 10.2692 4.26032 6.09624 -1.46272e-06
97 1 2.44648 4.25916 6.08075 -5.1051e-07
90 1 7.74503 5.42543 8.31343 -2.14302e-06
91 1 9.02955 3.15423 7.94799 3.39918e-06
92 1 6.37077 3.15021 7.9509 -3.50059e-08
93 1 9.05494 4.31458 10.2722 9.57745e-07
98 1 2.40976 5.39337 8.39503 -8.16973e-08
99 1 3.73395 3.14061 8.0274 1.08206e-06
100 1 1.1337 3.29168 8.0336 -1.97647e-07
101 1 5.12044 5.31354 8.38338 1.58438e-06
103 1 6.4283 4.40429 10.2478 1.65038e-06
104 1 3.80963 4.29845 10.2862 -3.18266e-06
106 1 10.303 5.38073 8.33533 1.30153e-06
108 1 1.18492 4.23556 10.35 2.35591e-07
113 1 5.1743 0.982318 7.6656 -1.97412e-06
114 1 7.79351 0.972397 7.6513 -5.50666e-07
115 1 7.74237 2.07782 9.88746 -1.65116e-06
119 1 10.4564 1.00023 7.69831 -1.55415e-06
120 1 2.51172 0.925717 7.63391 8.99565e-07
121 1 2.50463 2.02177 9.95618 8.05766e-07
124 1 5.12727 2.05013 9.89798 4.05027e-07
125 1 10.3291 2.05349 9.9972 1.34698e-07
117 1 6.50095 11.7636 9.49477 -1.6053e-06
17 1 9.12729 10.803 7.09383 -2.40371e-07
24 1 6.47029 10.9051 7.06285 1.758e-06
25 1 3.80127 10.8564 7.14633 1.13359e-06
26 1 1.22309 10.8527 7.08698 2.34989e-06
46 1 7.76992 8.68542 6.68618 -1.48339e-06
47 1 8.98618 6.46041 6.37309 3.88585e-06
48 1 6.39136 6.50129 6.36403 1.0916e-06
54 1 2.53839 8.65703 6.79754 -4.71322e-07
55 1 3.79044 6.44603 6.39714 7.45058e-07
56 1 1.20014 6.4806 6.40717 -1.65172e-06
57 1 5.10913 8.63478 6.79029 1.52933e-06
64 1 10.4017 8.61737 6.61122 2.6568e-06
116 1 9.09871 11.7603 9.50649 2.248e-06
122 1 3.8521 11.8424 9.57996 1.49811e-06
123 1 1.18187 11.8272 9.544 8.26803e-07
49 1 9.05024 7.57115 8.65554 2.88677e-06
58 1 5.08391 9.77356 8.9008 -1.09589e-06
59 1 6.44558 7.57112 8.64367 -3.04604e-07
60 1 3.76298 7.57617 8.73622 -2.1887e-06
61 1 7.79524 9.76341 8.91513 -4.1379e-07
62 1 9.09884 8.90974 10.8148 -1.17987e-07
63 1 6.40665 8.82816 10.8814 -2.91051e-08
65 1 10.4134 9.70062 8.91655 -2.51598e-06
66 1 1.20795 7.59297 8.67861 1.10986e-06
67 1 2.57264 9.81799 9.01054 -9.13461e-08
68 1 3.89754 8.94621 10.9245 -1.40894e-06
69 1 1.20515 8.80637 10.901 1.95237e-07
102 1 5.16354 6.59401 10.6106 -1.18741e-06
105 1 7.7721 6.57614 10.5948 1.41086e-06
107 1 10.4119 6.52533 10.5955 -8.60921e-07
109 1 2.48746 6.56432 10.6551 -9.20145e-07
ITEM: TIMESTEP
5000
ITEM: NUMBER OF ATOMS
125
ITEM: BOX BOUNDS pp pp mm
0.0000000000000000e+00 1.0500000000000000e+01
0.0000000000000000e+00 1.2000000000000000e+01
-9.6038718106084187e-01 1.3000000000000000e+01
ITEM: ATOMS id type x y z c_charge
27 1 5.07218 5.31763 -0.0887334 -2.63925e-07
28 1 6.44112 3.15701 -0.459642 2.87966e-06
29 1 3.80067 3.15331 -0.44747 -2.00125e-06
30 1 7.70101 5.25473 -0.0558711 4.1853e-07
32 1 8.99295 4.17013 1.90506 2.38819e-06
33 1 6.34294 4.21381 1.90961 -3.67632e-07
34 1 9.02962 5.26765 4.14142 2.32489e-06
35 1 10.398 5.2058 -0.0872624 2.29882e-08
36 1 1.14264 2.99037 -0.435176 2.14024e-06
37 1 2.39311 5.2667 -0.123169 -9.00343e-08
39 1 3.78376 4.17964 1.81514 5.42342e-07
40 1 1.16176 4.16194 1.79861 -1.66853e-06
43 1 6.37331 5.36335 4.18549 -3.48107e-07
44 1 3.75856 5.27261 4.19203 1.68923e-06
52 1 1.16655 5.27082 4.16785 -2.59021e-06
70 1 8.99827 3.02038 -0.415229 -2.25689e-06
72 1 5.19327 0.952533 -0.963204 -6.47211e-07
73 1 5.10556 2.0295 1.43035 -4.1863e-07
74 1 7.70784 2.09005 1.49835 -5.81787e-07
75 1 7.72311 3.09961 3.82832 -1.51604e-06
76 1 9.00891 0.954811 3.35383 9.86918e-07
77 1 6.3914 1.01995 3.33239 -6.92749e-07
78 1 9.0406 2.08281 5.73022 9.51168e-08
80 1 10.3451 2.00667 1.49518 2.61467e-07
81 1 2.46645 1.98975 1.47839 2.54867e-07
82 1 2.48401 3.11394 3.76746 1.1705e-06
83 1 3.80404 0.939129 3.32299 3.45553e-07
84 1 1.16442 0.920501 3.31521 -1.08035e-06
85 1 5.08011 3.04073 3.7777 -9.49817e-07
87 1 6.40942 2.08847 5.7458 1.59584e-06
88 1 3.78613 2.05539 5.72736 -9.94694e-07
94 1 10.3807 3.09007 3.70521 2.30765e-07
96 1 1.14724 2.03508 5.68904 8.01169e-07
31 1 7.64376 6.48201 2.14916 4.26054e-07
38 1 2.47289 6.36386 2.16797 -2.78473e-07
41 1 5.02308 6.41752 2.19771 -1.59454e-07
50 1 10.3042 6.3658 2.28194 5.07013e-07
71 1 3.78483 11.9009 0.911453 7.5519e-07
79 1 1.18236 11.9268 0.923062 1.23034e-06
110 1 7.68885 11.94 5.22091 -4.60988e-07
111 1 2.45441 11.8954 5.2242 4.99887e-07
112 1 5.14832 11.9614 5.18053 6.50171e-07
118 1 10.3562 11.9221 5.20668 -1.55941e-06
1 1 8.97615 11.9405 0.788086 -6.01871e-07
2 1 6.45582 11.9044 1.09206 1.61923e-07
3 1 7.69536 9.66607 0.502246 -5.15646e-07
4 1 9.01284 7.38395 0.293493 -6.8596e-07
5 1 6.37633 7.52709 0.229167 2.81478e-06
6 1 9.0522 8.63679 2.52347 9.63621e-07
7 1 2.48924 9.61054 0.562028 7.46081e-07
8 1 3.79985 7.46374 0.280583 -1.52966e-06
9 1 1.11282 7.44095 0.372413 1.29737e-06
10 1 5.10254 9.7305 0.584027 5.47865e-07
11 1 5.14643 10.8167 2.89811 7.14629e-09
12 1 6.4175 8.65137 2.50581 -1.19935e-07
13 1 3.84658 8.55763 2.53283 8.27383e-07
14 1 7.80882 10.7591 2.90652 -1.23281e-06
15 1 9.03771 9.6776 4.82555 7.17202e-07
16 1 6.45706 9.7534 4.76363 -7.99094e-07
18 1 10.3533 9.707 0.501944 -2.20724e-07
19 1 10.3759 10.8248 2.79843 6.00714e-07
20 1 1.15835 8.56924 2.54042 -6.6933e-07
21 1 2.56299 10.7584 2.815 9.95387e-07
22 1 3.76048 9.78538 4.74307 6.64717e-07
23 1 1.0264 9.73957 4.80212 -1.32081e-06
42 1 5.12943 7.6016 4.45607 4.79321e-07
45 1 7.73721 7.49047 4.40718 -7.49739e-07
51 1 10.295 7.53623 4.53454 -3.24021e-07
53 1 2.41665 7.51846 4.46608 1.01397e-07
89 1 7.72287 4.22938 6.06562 -6.87917e-07
86 1 5.11803 4.19073 6.12859 -9.99595e-07
95 1 10.3565 4.19352 6.10377 1.79288e-06
97 1 2.44638 4.18509 6.07228 -8.10731e-07
90 1 7.67535 5.34144 8.34027 -5.85936e-07
91 1 8.9802 3.17149 7.98874 -5.97488e-07
92 1 6.37427 3.09866 8.09621 1.39276e-06
93 1 9.03245 4.39006 10.2471 1.61872e-06
98 1 2.46898 5.36749 8.30591 1.85071e-06
99 1 3.83016 3.19235 7.98347 -2.93851e-07
100 1 1.18729 3.1932 8.01411 -5.03434e-08
101 1 5.09226 5.38378 8.29738 -1.39041e-06
103 1 6.41068 4.26148 10.4088 -2.35842e-06
104 1 3.81813 4.35685 10.2369 1.15572e-06
106 1 10.3614 5.34043 8.36173 -1.72871e-07
108 1 1.14325 4.44887 10.2855 -3.73296e-07
113 1 5.13922 0.941396 7.65388 -6.13837e-07
114 1 7.67734 0.929376 7.64873 -2.25015e-07
115 1 7.75687 2.01866 9.95305 5.43252e-07
119 1 10.2475 0.970931 7.62675 8.57684e-07
120 1 2.38883 0.943081 7.68135 -7.0427e-07
121 1 2.50805 2.18923 9.95193 1.81596e-07
124 1 5.05114 2.05139 10.0949 -9.87086e-07
125 1 10.3007 2.12492 9.9212 6.66665e-07
117 1 6.42918 11.8119 9.5286 1.6954e-06
17 1 8.99406 10.8457 7.14876 -4.45617e-07
24 1 6.36204 10.7946 7.12326 1.10552e-06
25 1 3.75882 10.837 7.07628 -1.80827e-06
26 1 1.17291 10.8501 7.14648 -1.96824e-07
46 1 7.68753 8.53422 6.66934 4.94349e-07
47 1 9.01197 6.38703 6.38064 -1.3325e-06
48 1 6.39376 6.3595 6.33917 2.17583e-07
54 1 2.35116 8.68315 6.62323 -1.57769e-07
55 1 3.72163 6.45084 6.28729 -2.13684e-06
56 1 1.11051 6.39717 6.37746 2.41426e-06
57 1 5.03174 8.70318 6.68021 2.29152e-08
64 1 10.2957 8.69802 6.74959 -1.55298e-06
116 1 9.04646 11.8493 9.58703 2.27328e-07
122 1 3.75443 11.8598 9.52038 1.33356e-07
123 1 1.19988 11.8776 9.58878 -1.89236e-06
49 1 9.03624 7.51496 8.60863 -1.35043e-06
58 1 5.08523 9.71696 8.96518 5.83646e-07
59 1 6.37997 7.50425 8.59237 7.55932e-07
60 1 3.81741 7.63346 8.60231 -1.89811e-06
61 1 7.8466 9.70146 8.94791 -4.78345e-07
62 1 9.08008 8.80662 10.9655 2.25459e-06
63 1 6.46016 8.87175 10.9238 -2.83928e-06
65 1 10.3314 9.73312 9.01494 2.27175e-07
66 1 1.22385 7.55098 8.65209 1.37576e-06
67 1 2.50119 9.69386 8.93613 -7.06132e-07
68 1 3.80157 8.69983 10.9237 2.83306e-06
69 1 1.21843 8.88443 10.9701 -2.02919e-06
102 1 5.14607 6.50713 10.6097 -4.06706e-07
105 1 7.6868 6.60929 10.5812 -6.22136e-07
107 1 10.3459 6.65387 10.6155 7.03423e-07
109 1 2.47294 6.59287 10.5704 1.54191e-07
ITEM: TIMESTEP
6000
ITEM: NUMBER OF ATOMS
125
ITEM: BOX BOUNDS pp pp mm
0.0000000000000000e+00 1.0500000000000000e+01
0.0000000000000000e+00 1.2000000000000000e+01
-9.7026988845572693e-01 1.3000000000000000e+01
ITEM: ATOMS id type x y z c_charge
27 1 5.08065 5.24067 -0.134492 2.29769e-06
28 1 6.40597 3.00768 -0.466164 -6.86471e-07
29 1 3.69273 3.00718 -0.54519 -1.58804e-06
30 1 7.69182 5.2534 -0.149979 -9.70609e-07
32 1 9.05943 4.16272 1.85053 2.09809e-06
33 1 6.4384 4.20301 1.7601 -9.22705e-07
34 1 9.12023 5.41404 4.14779 -4.95736e-07
35 1 10.278 5.21593 -0.115624 1.05229e-06
36 1 1.16498 2.89441 -0.531843 1.07918e-06
37 1 2.47947 5.19638 -0.1943 7.83398e-07
39 1 3.84777 4.21456 1.7281 -6.90122e-07
40 1 1.16839 4.21098 1.80878 -2.93816e-06
43 1 6.51254 5.26665 4.19056 9.20478e-07
44 1 3.84089 5.33181 4.03026 -1.08778e-06
52 1 1.29038 5.36652 4.08327 1.07023e-06
70 1 8.95589 2.99721 -0.457534 -2.31361e-06
72 1 5.02568 0.850206 -0.966399 6.03385e-07
73 1 5.08813 2.00475 1.53897 -2.24463e-07
74 1 7.72492 2.00219 1.52818 6.12455e-08
75 1 7.81052 3.10984 3.75367 -2.04635e-06
76 1 9.11241 0.991232 3.34075 2.97396e-07
77 1 6.39957 0.977388 3.41826 -1.84687e-07
78 1 8.99791 2.07721 5.74762 1.78443e-06
80 1 10.4333 2.12942 1.49507 -2.00454e-06
81 1 2.46373 2.02171 1.38444 5.85215e-07
82 1 2.57586 3.11862 3.74666 1.38776e-06
83 1 3.80228 0.914665 3.37876 3.49432e-08
84 1 1.1731 1.00591 3.30493 1.3318e-06
85 1 5.13728 3.13111 3.74215 1.16739e-06
87 1 6.37931 2.02394 5.69405 -9.65696e-07
88 1 3.8047 2.09084 5.62101 -1.78192e-06
94 1 10.4054 3.20825 3.80648 -2.13671e-06
96 1 1.17937 1.96343 5.63954 5.43567e-07
31 1 7.85683 6.35923 2.20055 1.05726e-06
38 1 2.49368 6.44665 2.09352 -4.52673e-07
41 1 5.23964 6.41874 2.17345 1.42922e-06
50 1 10.4176 6.39982 2.17465 8.25899e-07
71 1 3.73661 11.8695 1.01018 7.33669e-07
79 1 1.12867 11.9271 0.883958 1.1002e-06
110 1 7.72666 11.8615 5.30001 -7.09198e-07
111 1 2.49264 11.8343 5.29007 -8.53688e-08
112 1 5.07538 11.8337 5.28892 1.34671e-06
118 1 10.3205 11.8477 5.22616 -3.09702e-06
1 1 9.06138 11.9815 1.02713 -1.57937e-06
2 1 6.37924 11.8523 0.874377 -2.66441e-06
3 1 7.72305 9.76598 0.712689 -4.99493e-08
4 1 9.00017 7.49159 0.210562 -1.37693e-07
5 1 6.42368 7.46721 0.304225 -1.27611e-07
6 1 9.00935 8.52168 2.60323 7.13397e-07
7 1 2.363 9.73211 0.651125 6.59369e-07
8 1 3.72516 7.50416 0.207728 -1.48108e-06
9 1 1.11802 7.37358 0.237823 -7.95295e-07
10 1 5.07685 9.6373 0.549556 1.40273e-06
11 1 5.13297 10.8378 2.93703 -9.71385e-07
12 1 6.41696 8.61599 2.60282 4.51497e-07
13 1 3.83244 8.59331 2.47182 -1.95924e-07
14 1 7.69082 10.8383 2.90757 -2.87313e-06
15 1 9.02193 9.71273 4.74317 8.54043e-07
16 1 6.37656 9.72792 4.85422 5.70455e-07
18 1 10.3416 9.66102 0.66444 -9.43462e-08
19 1 10.3507 10.8232 2.90422 -1.08469e-06