ITEM: TIMESTEP
1000
ITEM: NUMBER OF ATOMS
125
ITEM: BOX BOUNDS pp pp mm
0.0000000000000000e+00 1.0500000000000000e+01
0.0000000000000000e+00 1.2000000000000000e+01
-8.1585841906956857e-01 1.3000000000000000e+01
ITEM: ATOMS id type x y z c_charge
27 1 5.01858 5.21477 -0.135934 -1.40409e-06
28 1 6.31178 2.96134 -0.440521 1.58218e-06
29 1 3.72375 3.1195 -0.538649 1.81743e-06
30 1 7.64745 5.18325 -0.0823366 -4.159e-09
94 1 10.2835 3.12256 3.75327 1.21451e-06
32 1 8.94954 4.13506 1.87019 -1.34634e-06
33 1 6.30494 4.11111 1.91206 -5.22906e-07
34 1 9.05356 5.36594 4.05862 1.15761e-06
35 1 10.2364 5.17956 -0.063739 2.75951e-06
36 1 1.05802 3.07771 -0.592646 -2.49689e-06
37 1 2.37611 5.24287 -0.163931 -3.86872e-07
85 1 5.00515 3.09024 3.75115 -5.36724e-07
39 1 3.71293 4.1842 1.77268 -1.21117e-06
40 1 1.11405 4.12367 1.78064 1.03209e-06
84 1 1.1967 0.977485 3.29262 -1.59398e-06
43 1 6.37574 5.3631 4.1296 4.39909e-07
44 1 3.76993 5.3986 4.05914 3.94874e-07
83 1 3.73305 0.927114 3.35362 2.05126e-06
52 1 1.18295 5.33424 4.07547 -2.50244e-06
70 1 8.91569 2.96742 -0.497606 8.28894e-07
82 1 2.45242 3.16822 3.68142 2.35727e-08
72 1 4.9227 0.785242 -0.816869 -1.09201e-06
73 1 4.98754 1.98293 1.52218 1.25187e-06
74 1 7.65316 2.0077 1.42889 1.34332e-06
75 1 7.66819 3.1691 3.80447 9.99601e-07
76 1 9.0335 1.03407 3.40145 -8.99485e-07
77 1 6.39682 0.842935 3.41011 -2.04411e-07
81 1 2.39795 2.00165 1.31976 -2.0997e-06
80 1 10.3631 1.99735 1.37797 4.79001e-07
88 1 3.81136 2.02024 5.62985 -1.13469e-06
96 1 1.24144 2.08144 5.58966 1.86886e-06
78 1 9.05357 2.16418 5.72858 -8.01151e-07
87 1 6.36392 2.06371 5.7131 -6.98015e-07
89 1 7.72451 4.31094 5.99584 1.16104e-06
97 1 2.50913 4.29991 6.00978 2.40529e-07
95 1 10.3811 4.37524 6.01119 -1.16692e-06
86 1 5.15259 4.25754 5.95881 1.59074e-06
125 1 10.365 2.12729 9.86514 -1.31704e-07
91 1 9.08062 3.26612 8.02393 -3.18309e-07
92 1 6.46458 3.21275 7.89073 -2.12436e-06
93 1 8.95902 4.35325 10.2906 -1.35581e-06
124 1 5.10793 2.21539 9.7347 5.0362e-07
99 1 3.84264 3.18895 7.89569 3.30819e-07
100 1 1.19392 3.20809 7.86719 -9.00861e-07
90 1 7.73689 5.45758 8.34063 1.80504e-08
103 1 6.33167 4.31755 10.1147 -4.16978e-07
104 1 3.71581 4.27921 10.295 4.49873e-08
106 1 10.3423 5.48634 8.32943 2.72208e-06
108 1 1.06138 4.37097 10.121 1.0672e-06
113 1 5.10526 1.00987 7.56792 6.86306e-07
114 1 7.83501 1.03322 7.59866 1.73391e-07
115 1 7.6966 2.25206 9.90969 -7.93055e-09
98 1 2.5532 5.45141 8.34088 3.19029e-06
101 1 5.10588 5.3439 8.32427 -1.62998e-06
119 1 10.378 1.05353 7.56972 1.45015e-07
120 1 2.50913 0.953122 7.5754 8.98553e-07
121 1 2.36314 2.16079 9.85961 1.10506e-06
117 1 6.41188 -0.00072274 9.56275 -2.64056e-07
1 1 9.04188 11.8146 1.08408 -2.16244e-08
2 1 6.4576 11.7726 1.07587 6.31348e-07
3 1 7.75638 9.54731 0.620507 -9.31126e-07
4 1 9.00027 7.44943 0.18683 1.87318e-07
5 1 6.42942 7.42684 0.272381 1.20805e-06
6 1 9.03853 8.59809 2.54381 -9.39678e-08
7 1 2.51167 9.59349 0.591041 1.38116e-06
8 1 3.85013 7.43595 0.0543431 1.08324e-06
9 1 1.07085 7.4462 0.193445 -3.5233e-06
10 1 5.11559 9.54071 0.537368 -7.16461e-07
11 1 5.1173 10.6126 2.88659 1.45911e-06
12 1 6.39164 8.55924 2.48085 6.57202e-07
13 1 3.86421 8.58577 2.46892 -9.37898e-07
14 1 7.78079 10.7991 2.95041 -2.30852e-07
15 1 9.11862 9.70359 4.89221 -8.38543e-07
16 1 6.4915 9.71819 4.8717 3.03217e-07
79 1 1.18237 11.7574 1.03568 5.28842e-07
18 1 10.3422 9.67131 0.581367 8.08723e-07
19 1 10.3617 10.7617 2.931 -9.8067e-07
20 1 1.17805 8.59368 2.51064 -4.93521e-07
21 1 2.49638 10.695 2.96496 -2.81936e-07
22 1 3.79375 9.64337 4.80483 -8.34813e-07
23 1 1.12861 9.71 4.9149 -2.2529e-07
71 1 3.82948 11.7107 1.11708 -8.95276e-07
53 1 2.43445 7.55248 4.35064 1.36042e-06
51 1 10.3462 7.47025 4.47362 1.41965e-06
42 1 5.11833 7.52342 4.4203 -1.85473e-06
45 1 7.72774 7.49722 4.42264 -5.38551e-07
31 1 7.74931 6.31109 2.16656 1.19903e-06
38 1 2.41296 6.40156 2.1214 -8.08902e-07
110 1 7.78751 11.9214 5.25983 3.33302e-07
41 1 5.08843 6.38382 2.13193 2.10559e-06
50 1 10.2978 6.38832 2.08951 -1.35113e-06
112 1 5.03939 11.8769 5.27723 -1.24273e-06
111 1 2.41789 11.8822 5.26374 -1.19542e-06
118 1 10.3869 11.951 5.22686 1.54836e-06
49 1 9.02845 7.63141 8.79001 6.81359e-07
58 1 5.14761 9.84219 9.11202 -1.06974e-06
59 1 6.39965 7.69622 8.70879 -9.35887e-08
60 1 3.80565 7.6676 8.6919 8.01505e-07
61 1 7.76875 9.8667 9.11227 -1.34884e-06
62 1 8.93292 8.87758 11.0642 2.79117e-07
63 1 6.38058 8.72354 11.0064 -5.25684e-07
65 1 10.3889 9.78397 9.13975 7.68686e-07
66 1 1.25904 7.52623 8.73073 -2.93565e-06
67 1 2.49027 9.72521 9.13473 3.50903e-09
68 1 3.73824 8.68975 10.9948 -4.21484e-07
69 1 1.11641 8.66332 11.0699 1.59377e-06
102 1 5.05432 6.50398 10.5797 4.02866e-07
105 1 7.66432 6.56362 10.6922 -3.95512e-07
107 1 10.2753 6.56618 10.7026 -1.35341e-07
109 1 2.46804 6.4598 10.6129 4.44242e-07
47 1 9.07486 6.44357 6.43392 -2.92046e-06
48 1 6.40186 6.53473 6.39274 -3.56435e-07
46 1 7.78574 8.69747 6.84329 7.84069e-07
57 1 5.13447 8.718 6.86252 6.05655e-07
17 1 9.10243 10.7894 7.20045 -4.47766e-07
24 1 6.52456 10.9721 7.15058 -3.50035e-07
25 1 3.78767 10.7355 7.20839 9.81791e-07
26 1 1.18283 10.832 7.12826 -4.45998e-07
64 1 10.3925 8.61074 6.87634 -1.4506e-08
56 1 1.19596 6.54602 6.36606 1.53537e-06
55 1 3.77426 6.50697 6.34593 -1.42678e-06
54 1 2.48346 8.59452 6.73551 6.56222e-08
123 1 1.19939 11.8947 9.4914 2.99298e-07
122 1 3.82011 11.8581 9.58115 -7.93198e-07
116 1 9.12269 11.9198 9.52817 3.46095e-07
ITEM: TIMESTEP
2000
ITEM: NUMBER OF ATOMS
125
ITEM: BOX BOUNDS pp pp mm
0.0000000000000000e+00 1.0500000000000000e+01
0.0000000000000000e+00 1.2000000000000000e+01
-9.5605302874122788e-01 1.3000000000000000e+01
ITEM: ATOMS id type x y z c_charge
27 1 4.99635 5.21199 -0.228134 -1.64339e-06
28 1 6.34647 2.97917 -0.507894 7.92216e-07
29 1 3.66214 2.98293 -0.546035 -8.65074e-08
30 1 7.70838 5.1804 -0.150909 2.45774e-07
94 1 10.3911 3.14405 3.65393 -2.26756e-06
32 1 8.97977 4.19684 1.79441 6.20216e-07
33 1 6.40453 4.2086 1.74659 2.2576e-07
34 1 8.98769 5.29864 4.13088 -1.67747e-10
35 1 10.2629 5.22587 -0.240794 3.12306e-07
36 1 1.09686 2.91049 -0.462886 6.81361e-07
37 1 2.40785 5.12693 -0.266295 1.85156e-06
85 1 5.188 3.20726 3.67099 -2.52184e-06
39 1 3.78028 4.13768 1.71565 6.03464e-07
40 1 1.16273 4.1925 1.67755 -9.45078e-07
84 1 1.1288 0.904023 3.4038 4.04781e-07
43 1 6.44956 5.3746 4.05847 5.66271e-07
44 1 3.85491 5.27926 3.99735 -1.66777e-06
83 1 3.80582 0.923138 3.44626 -8.48464e-07
52 1 1.19616 5.3662 4.06269 4.67792e-07
70 1 8.92992 2.85217 -0.455021 1.16818e-07
82 1 2.47081 3.03392 3.64629 2.05587e-06
72 1 4.85915 0.719117 -0.958222 -6.81996e-09
73 1 5.04778 2.01868 1.39915 3.85159e-07
74 1 7.61824 2.00195 1.46196 -1.33543e-06
75 1 7.78083 3.14538 3.71349 1.3391e-06
76 1 8.98006 0.837483 3.37798 4.0519e-07
77 1 6.3346 0.945626 3.36002 1.78598e-06
81 1 2.4924 1.97295 1.49929 -8.19282e-07
80 1 10.35 2.02018 1.45329 1.92236e-06
88 1 3.85362 2.07433 5.60745 1.06062e-06
96 1 1.14962 2.0847 5.67636 5.01855e-08
78 1 9.06092 2.0375 5.57268 6.37583e-07
87 1 6.44182 2.08226 5.65998 -1.36593e-06
86 1 5.1372 4.27641 5.99542 3.52441e-06
97 1 2.50511 4.26973 5.82887 -2.50354e-06
95 1 10.4009 4.26214 5.98155 1.59661e-06
125 1 10.3578 2.28576 9.81345 4.86776e-07
91 1 9.06483 3.25052 7.89725 -2.106e-06
92 1 6.3077 3.24658 8.08525 5.21671e-07
93 1 9.11194 4.40835 10.1687 -5.44247e-07
124 1 5.17611 2.09484 10.0279 -1.04045e-07
99 1 3.81736 3.20974 7.89564 -4.35187e-07
100 1 1.17785 3.2694 8.0082 6.34812e-07
90 1 7.74625 5.40166 8.35263 2.99664e-06
103 1 6.48411 4.3359 10.4033 -4.55269e-07
104 1 3.87981 4.47988 10.0253 2.1125e-06
106 1 10.3255 5.4793 8.24276 -1.61099e-06
108 1 1.292 4.32491 10.3177 -1.26753e-06
113 1 5.18554 1.05869 7.54173 1.89429e-07
114 1 7.72736 1.04504 7.52524 -6.9856e-07
115 1 7.75295 2.19652 9.86037 -1.0238e-06
98 1 2.39275 5.42901 8.22736 8.48103e-07
101 1 5.12678 5.43252 8.28463 -2.64411e-06
119 1 10.4114 1.09063 7.62282 -6.23079e-08
120 1 2.45321 1.09645 7.4778 1.76159e-06
121 1 2.56475 2.2108 9.79122 1.01193e-06
123 1 1.09182 0.0169209 9.57271 7.61817e-07
89 1 7.684 4.30379 6.05122 -1.9035e-06
1 1 9.02687 11.8763 0.915557 6.47817e-07
2 1 6.31857 11.9464 1.0365 4.06519e-08
3 1 7.68786 9.78481 0.648096 3.50474e-07
4 1 8.95868 7.36371 0.332156 4.952e-07
5 1 6.28119 7.50913 0.113892 -4.58657e-07
6 1 9.03787 8.531 2.53031 4.62127e-07
7 1 2.35665 9.62591 0.590474 1.7154e-07
8 1 3.65147 7.38626 0.263847 1.81959e-07
9 1 1.0769 7.34727 0.157389 -1.69184e-07
10 1 5.08911 9.74823 0.6832 -7.37123e-07
11 1 5.09111 10.751 2.99159 -3.10335e-07
12 1 6.41292 8.60255 2.55586 3.11472e-08
13 1 3.76324 8.63866 2.54666 -1.0898e-06
14 1 7.68863 10.7781 2.94246 -2.41993e-07
15 1 8.99457 9.71035 4.89925 9.00791e-07
16 1 6.47084 9.70859 4.89495 5.02696e-07
79 1 1.07403 11.8583 0.994539 -5.64137e-07
18 1 10.2525 9.60624 0.621707 6.15295e-07
19 1 10.2827 10.7416 2.97126 5.55959e-07
20 1 1.15609 8.4785 2.528 2.6181e-07
21 1 2.44181 10.649 2.93977 8.1705e-08
22 1 3.78358 9.71606 4.88927 -3.71501e-07
23 1 1.19034 9.6911 4.89925 7.94041e-07
71 1 3.65335 11.758 1.10387 8.56661e-08
53 1 2.56047 7.43884 4.55491 7.69533e-07
51 1 10.4225 7.5414 4.49561 -1.66585e-06
42 1 5.15172 7.50579 4.36781 -1.64385e-06
45 1 7.76068 7.53194 4.53094 1.91667e-06
31 1 7.72822 6.40961 2.21147 -1.90389e-06
38 1 2.42528 6.3374 2.20217 -1.20864e-06
110 1 7.6953 11.8403 5.30068 -1.162e-06
41 1 5.08233 6.42307 2.12342 4.38693e-07
50 1 10.3309 6.31022 2.2072 2.04809e-06
112 1 5.24961 11.9047 5.34524 1.02647e-07
111 1 2.44192 11.8609 5.30699 8.55116e-07
118 1 10.4183 11.8548 5.3328 -4.78862e-08
49 1 9.01291 7.56409 8.72767 -8.50061e-07
58 1 4.97896 9.67182 9.02748 -1.25433e-06
59 1 6.42002 7.57966 8.71224 9.71068e-07
60 1 3.76591 7.53195 8.69113 4.54e-07
61 1 7.72009 9.64978 9.09767 2.3527e-07
62 1 9.05119 8.67772 11.128 -4.67225e-07
63 1 6.34631 8.76609 11.1345 -1.5273e-07
65 1 10.2506 9.77785 9.13066 -3.50787e-07
66 1 1.13111 7.61972 8.69321 -6.48578e-07
67 1 2.55353 9.79687 9.12238 1.06295e-06
68 1 3.79711 8.74545 11.0135 -1.4854e-07
69 1 1.25332 8.85926 11.0838 -1.72834e-07
102 1 5.08855 6.52233 10.6536 5.0206e-07
105 1 7.75804 6.60495 10.7097 -5.35182e-07
107 1 10.4081 6.52647 10.607 1.03141e-06
109 1 2.43937 6.58575 10.6149 -1.92216e-06
47 1 9.12039 6.54005 6.39893 9.05555e-07
48 1 6.4676 6.45113 6.33108 -2.74949e-07
46 1 7.72206 8.69608 6.87174 -1.1404e-06
57 1 5.13313 8.59082 6.77934 7.72151e-07
17 1 8.99659 10.916 7.24796 -1.23259e-07
24 1 6.37711 10.7085 7.22273 -8.51239e-07
25 1 3.80287 10.9618 7.19597 1.14561e-06
26 1 1.15864 10.827 7.22851 6.6528e-07
64 1 10.3699 8.66673 6.72663 1.52949e-06
56 1 1.2145 6.42926 6.36199 -1.09973e-06
55 1 3.84899 6.54345 6.30764 -2.7675e-07
54 1 2.50593 8.67109 6.85966 -1.58571e-06
116 1 9.04989 11.9085 9.57638 -1.93499e-06
117 1 6.43829 11.8337 9.47701 -1.21308e-06
122 1 3.7559 11.9878 9.46851 8.83564e-07
ITEM: TIMESTEP
3000
ITEM: NUMBER OF ATOMS
125
ITEM: BOX BOUNDS pp pp mm
0.0000000000000000e+00 1.0500000000000000e+01
0.0000000000000000e+00 1.2000000000000000e+01
-9.5732939434856179e-01 1.3000000000000000e+01
ITEM: ATOMS id type x y z c_charge
27 1 5.12264 5.25436 -0.186927 2.15789e-06
28 1 6.39224 2.87731 -0.509685 1.27866e-06
29 1 3.74629 2.94925 -0.429016 -2.32243e-06
30 1 7.66182 5.21865 -0.255816 6.9852e-07
94 1 10.3243 3.18419 3.82389 -1.01311e-06
32 1 9.03195 4.25436 1.77203 -9.41305e-07
33 1 6.36022 4.15195 1.69782 -2.05206e-06
34 1 9.02998 5.3602 3.95101 2.88696e-06
35 1 10.3886 5.1125 -0.158069 2.51342e-06
36 1 1.13242 2.75887 -0.495042 -4.08447e-06
37 1 2.49167 5.26289 -0.132271 -9.97184e-07
85 1 5.07365 3.09706 3.73278 -9.3056e-07
39 1 3.77039 4.1972 1.78919 -2.33319e-08
40 1 1.13561 4.2161 1.85724 9.31858e-07
84 1 1.11405 0.994057 3.38655 -3.12062e-07
43 1 6.40861 5.26911 4.1076 1.97328e-08
44 1 3.72871 5.37668 4.15728 -2.05356e-07
83 1 3.68855 1.02964 3.28684 4.59294e-06
52 1 1.18339 5.40105 4.13413 2.50703e-06
70 1 9.03929 3.01812 -0.497218 2.20591e-06
82 1 2.52126 3.1957 3.78923 1.48778e-06
72 1 5.06775 0.676685 -0.959071 -4.6325e-07
73 1 5.14827 1.99266 1.40192 1.17445e-06
74 1 7.65409 2.10827 1.52103 -3.00833e-06
75 1 7.75108 3.22635 3.70129 -1.44379e-06
76 1 9.08142 0.92265 3.42116 -1.06805e-07
77 1 6.47139 0.993892 3.34079 3.97311e-06
81 1 2.39065 2.08157 1.51185 -2.20923e-06
80 1 10.2746 2.09685 1.52091 -1.97361e-06
88 1 3.70256 2.12453 5.726 -3.21847e-08
96 1 1.17756 1.98794 5.64434 -9.92216e-07
78 1 9.03257 2.06819 5.672 2.48376e-06
87 1 6.43068 1.98808 5.69206 1.43174e-06
89 1 7.83156 4.29143 5.92815 -1.77467e-06
125 1 10.4838 2.06466 9.86672 -8.8862e-07
91 1 9.10371 3.18652 8.03779 6.95914e-08
92 1 6.51391 3.22406 7.83835 1.61291e-06
93 1 9.08418 4.33239 10.2911 -2.90304e-07
124 1 5.12139 2.23347 9.79474 8.84131e-07
99 1 3.86732 3.27116 8.07826 3.04084e-07
100 1 1.13606 3.00262 7.93729 -1.16599e-06
90 1 7.79058 5.38382 8.28211 -4.2883e-06
103 1 6.44542 4.40777 10.1655 -2.41986e-06
104 1 3.85512 4.34844 10.4306 1.1989e-06
106 1 10.4884 5.32095 8.33447 -2.38575e-06
108 1 1.18701 4.39036 10.2206 2.66976e-06
113 1 4.99203 0.999643 7.56238 -3.73379e-06
114 1 7.57722 0.956987 7.61233 2.37721e-06
115 1 7.75797 2.13031 9.8915 -3.2856e-07
98 1 2.58333 5.39872 8.45958 1.78126e-08
101 1 5.09916 5.40326 8.39813 -2.26465e-06
119 1 10.286 0.893624 7.54321 2.08429e-06
120 1 2.48914 0.974735 7.64343 9.55713e-07
121 1 2.5158 2.15214 9.92898 3.06616e-07
97 1 2.3961 4.32433 6.12696 9.55551e-07
86 1 5.14443 4.26346 6.03625 4.69135e-07
95 1 10.3483 4.24073 6.07256 -1.26039e-06
117 1 6.38019 0.0416193 9.64703 -1.89698e-06
1 1 8.88103 11.8881 1.03301 2.18107e-06
2 1 6.34863 11.7744 1.02415 -5.96421e-07
3 1 7.63528 9.61639 0.58534 -3.98237e-08
4 1 9.03644 7.42863 0.141189 -2.19025e-06
5 1 6.36736 7.34775 0.262589 -9.60481e-07
6 1 8.98193 8.54348 2.466 1.74158e-06
7 1 2.38712 9.69052 0.781078 -5.56246e-07
8 1 3.77589 7.46427 0.219124 -2.40727e-06
9 1 1.14327 7.44593 0.359105 6.58631e-07
10 1 4.90199 9.71112 0.554584 1.39774e-06
11 1 5.07169 10.8446 2.93296 -1.88198e-06
12 1 6.29422 8.57899 2.59918 -1.26972e-08
13 1 3.74852 8.51858 2.56335 8.53647e-08
14 1 7.74285 10.7319 2.97394 -1.09215e-06
15 1 9.00237 9.70434 4.81979 2.43422e-07
16 1 6.42854 9.72609 4.84219 6.53087e-07
79 1 1.08861 11.8983 0.945598 1.58964e-06
18 1 10.2456 9.65912 0.619528 -5.6456e-07
19 1 10.3229 10.8246 2.87189 -8.63114e-07
20 1 1.05434 8.619 2.56814 -2.49455e-06
21 1 2.49828 10.7776 2.92678 4.70781e-06
22 1 3.71838 9.74003 4.75802 1.50274e-06
23 1 1.10969 9.7631 4.84526 3.1602e-06
71 1 3.67946 11.9107 0.962976 8.50395e-07
53 1 2.43605 7.47464 4.4822 -2.10756e-06
51 1 10.2741 7.54776 4.50068 -5.54493e-07
42 1 5.02478 7.43101 4.59193 3.23542e-06
45 1 7.64244 7.43618 4.39581 4.30451e-06
31 1 7.65248 6.36138 2.07335 4.23882e-06
38 1 2.47753 6.38831 2.13612 -1.58495e-07
110 1 7.69974 11.9243 5.27445 -3.00634e-06
41 1 5.0924 6.33816 2.25353 -3.61601e-06
50 1 10.2987 6.45186 2.14413 -2.54717e-06
112 1 5.0587 11.9486 5.24173 -2.68374e-06
111 1 2.50447 11.8877 5.30455 -1.91078e-06
118 1 10.3012 11.8507 5.17885 -2.44703e-06
49 1 9.07543 7.56598 8.65383 2.16789e-06
58 1 5.17362 9.77029 9.08813 -3.08203e-07
59 1 6.53145 7.61053 8.64557 6.50527e-07
60 1 3.87227 7.70236 8.67037 3.50363e-06
61 1 7.79489 9.80721 9.00391 -5.52321e-07
62 1 9.14531 8.78099 10.9451 1.8257e-07
63 1 6.59091 8.83158 11.0011 1.19729e-06
65 1 10.3254 9.84073 9.04759 -1.00933e-06
66 1 1.22115 7.53155 8.68725 3.16089e-06
67 1 2.50642 9.71092 8.95993 3.4281e-06
68 1 3.79588 8.89922 11.0454 -1.68205e-06
69 1 1.15065 8.79376 10.9725 -1.33004e-06
102 1 5.16255 6.62799 10.6445 7.30835e-07
105 1 7.82388 6.5529 10.515 1.73178e-06
107 1 10.4036 6.64607 10.6206 -8.43458e-07
109 1 2.58464 6.6308 10.683 1.20999e-06
47 1 9.0215 6.39786 6.42832 -1.63041e-06
48 1 6.41872 6.41047 6.37048 -8.23187e-07
46 1 7.70255 8.56667 6.69319 -2.03293e-06
57 1 5.1095 8.60173 6.767 -1.05786e-06
17 1 8.9809 10.7399 7.17509 1.56288e-06
24 1 6.38498 10.826 7.12894 9.74773e-07
25 1 3.80232 10.7333 7.2165 -1.08351e-06
26 1 1.14344 10.894 7.03719 1.07749e-06
64 1 10.357 8.64138 6.71943 -3.7731e-06
56 1 1.0907 6.45205 6.40294 4.85722e-07
55 1 3.72663 6.4268 6.41314 -1.06843e-06
54 1 2.44928 8.59638 6.66369 9.82976e-08
116 1 8.9814 11.9241 9.52463 7.34663e-07
123 1 1.20996 11.8774 9.53879 -2.94825e-07
122 1 3.82965 11.8067 9.55995 -1.70728e-06
ITEM: TIMESTEP
4000
ITEM: NUMBER OF ATOMS
125
ITEM: BOX BOUNDS pp pp mm
0.0000000000000000e+00 1.0500000000000000e+01
0.0000000000000000e+00 1.2000000000000000e+01
-9.4648560502337753e-01 1.3000000000000000e+01
ITEM: ATOMS id type x y z c_charge
27 1 5.0927 5.12503 0.033316 -4.9099e-07
28 1 6.3821 3.08819 -0.479117 2.82353e-07
29 1 3.86591 2.8905 -0.512391 -9.03109e-07
30 1 7.74971 5.2614 -0.0475071 -1.08898e-06
94 1 10.1511 3.03186 3.77 -4.09264e-07
32 1 9.02147 4.09756 1.9043 1.29038e-07
33 1 6.43771 4.14429 1.85935 5.18088e-07
34 1 8.88949 5.23836 4.18578 1.92057e-06
35 1 10.3568 5.25097 -0.042467 -9.62524e-07
36 1 1.16248 3.21554 -0.471932 3.47391e-08
37 1 2.48651 5.16024 0.119394 -7.05021e-08
85 1 5.01613 3.08282 3.78601 1.48397e-07
39 1 3.72471 4.21429 2.01974 -1.99932e-07
40 1 1.10701 4.13289 1.92655 2.35918e-07
84 1 1.06056 1.017 3.32325 5.62861e-08
43 1 6.34274 5.35477 4.16528 2.99218e-07
44 1 3.65171 5.38491 4.21972 -6.40802e-07
83 1 3.81557 0.999881 3.3717 -5.49843e-07
52 1 1.00847 5.26704 4.23231 2.34358e-07
70 1 9.1378 2.98349 -0.595528 -1.91152e-07
82 1 2.30731 3.12138 3.87108 2.62229e-07
72 1 5.30317 0.868481 -0.93758 -8.01347e-07
73 1 5.09628 2.1029 1.50805 -3.7417e-07
74 1 7.64342 1.98576 1.31432 -1.43819e-07
75 1 7.60725 3.0714 3.72295 -5.79921e-07
76 1 8.98341 0.964568 3.29446 1.06277e-07
77 1 6.31659 0.865229 3.36604 1.42079e-07
81 1 2.48753 2.09646 1.53014 3.27156e-07
80 1 10.3327 2.07502 1.45469 4.18324e-07
88 1 3.76939 1.96271 5.68557 9.80432e-07
96 1 1.06003 2.14144 5.77545 4.23991e-07
78 1 8.93552 1.97855 5.68059 8.74436e-07
87 1 6.31464 2.0182 5.69633 -3.3085e-07
125 1 10.3257 2.02611 10.0556 -7.53444e-07
91 1 9.0311 3.1397 7.95284 5.09194e-07
92 1 6.36882 3.13436 7.94688 7.79874e-07
93 1 9.06729 4.30533 10.2912 -5.86071e-07
124 1 5.13499 2.03428 9.89629 -9.01336e-07
99 1 3.71582 3.1275 8.05325 -3.05306e-07
100 1 1.12559 3.32236 8.05481 1.30951e-07
90 1 7.7642 5.44167 8.30676 -4.92568e-09
103 1 6.44228 4.43361 10.2475 9.52549e-07
104 1 3.82494 4.27571 10.3252 3.94372e-07
106 1 10.3025 5.38193 8.34578 -1.22412e-07
108 1 1.19875 4.18421 10.3801 1.92044e-07
113 1 5.21564 0.97465 7.6968 1.50817e-08
114 1 7.82297 0.955569 7.69119 -1.22997e-07
115 1 7.74903 2.06114 9.90252 -1.34359e-07
98 1 2.38876 5.39179 8.42777 -1.17232e-07
101 1 5.14284 5.28404 8.4059 -4.02486e-07
119 1 10.4993 1.00387 7.74288 -1.94623e-08
120 1 2.53377 0.896165 7.65517 2.37081e-07
121 1 2.52376 1.9849 9.97755 -1.45641e-06
97 1 2.42907 4.26209 6.09752 -5.23225e-07
86 1 4.9504 4.30094 6.1166 -3.0596e-07
95 1 10.2402 4.27096 6.12534 3.45628e-07
89 1 7.5699 4.20657 6.10437 -5.00496e-07
1 1 9.13669 11.8231 0.947825 -4.93558e-08
2 1 6.46145 11.9006 0.971849 -3.97238e-07
3 1 7.81085 9.62195 0.561355 -1.46895e-07
4 1 9.0038 7.50289 0.238216 2.17873e-07
5 1 6.43803 7.39271 0.230088 3.38338e-07
6 1 9.00754 8.61694 2.53767 6.85163e-07
7 1 2.5044 9.74416 0.473864 7.4445e-07
8 1 3.72305 7.43277 0.290683 -1.04783e-06
9 1 1.20249 7.47285 0.116667 3.49314e-07
10 1 5.1094 9.6807 0.532556 -1.4609e-07
11 1 4.91016 10.7093 2.85652 5.44972e-07
12 1 6.38879 8.54906 2.44085 3.96759e-07
13 1 3.6226 8.71003 2.50175 -1.11043e-06
14 1 7.63147 10.791 2.8233 -6.42475e-07
15 1 9.09688 9.7291 4.69785 2.63617e-07
16 1 6.31838 9.70108 4.69069 -3.96803e-08
118 1 10.3643 11.9786 5.17378 -5.53456e-07
18 1 10.3691 9.66307 0.587086 1.42992e-07
19 1 10.2745 10.8004 2.90427 6.41022e-07
20 1 1.12732 8.61647 2.38511 1.13627e-07
21 1 2.3392 10.9138 2.85785 6.81631e-07
22 1 3.72776 9.70675 4.86452 8.56192e-07
23 1 1.19473 9.78015 4.83971 -5.97994e-07
71 1 3.78917 11.9412 1.04418 -5.54583e-07
53 1 2.45244 7.57048 4.52839 7.24097e-07
51 1 10.3289 7.48945 4.34345 -4.51683e-07
42 1 4.99284 7.49042 4.35414 -2.39908e-07
45 1 7.57796 7.62985 4.4548 -2.79939e-07
31 1 7.67685 6.40108 2.2328 -2.51107e-08
38 1 2.40172 6.43141 2.25623 4.49361e-07
110 1 7.66262 11.8947 5.13435 5.62888e-07
41 1 4.9737 6.41731 2.0692 9.43994e-07
50 1 10.2838 6.39114 2.10114 5.26244e-07
112 1 5.02677 11.8008 5.27998 -7.17094e-08
111 1 2.39617 11.9377 5.20519 -4.84611e-07
79 1 1.17255 11.9812 0.932709 2.20219e-07
49 1 9.06094 7.56731 8.65245 -1.30843e-07
58 1 5.08378 9.78557 8.87123 -6.14841e-07
59 1 6.46828 7.56552 8.64078 9.81933e-07
60 1 3.76154 7.58789 8.76756 -4.11271e-07
61 1 7.82565 9.77281 8.88268 -4.40907e-07
62 1 9.12842 8.95675 10.7707 2.96812e-07
63 1 6.40881 8.84814 10.8611 9.17854e-07
65 1 10.4424 9.69064 8.88509 -7.68619e-07
66 1 1.22319 7.60332 8.67822 4.52682e-07
67 1 2.59973 9.84717 9.00913 6.65968e-07
68 1 3.93289 9.02755 10.9236 -4.45628e-07
69 1 1.22273 8.80821 10.8876 -2.49834e-07
102 1 5.19591 6.60237 10.6106 4.14776e-07
105 1 7.79934 6.58455 10.5931 -1.55345e-07
107 1 10.4475 6.50555 10.6032 -4.4286e-07
109 1 2.50017 6.56053 10.6773 5.46381e-07
47 1 8.96992 6.47128 6.36645 1.62127e-07
48 1 6.38736 6.5152 6.35092 -4.59631e-07
46 1 7.79312 8.70499 6.66527 2.62076e-07
57 1 5.11821 8.62095 6.80806 -7.56314e-08
17 1 9.16545 10.7979 7.07726 4.33483e-07
24 1 6.48889 10.9266 7.04191 4.28832e-07
25 1 3.81343 10.8518 7.14828 -4.91919e-07
26 1 1.24811 10.8638 7.06483 1.43701e-08
64 1 10.4206 8.60391 6.56012 6.34332e-07
56 1 1.22223 6.49186 6.41643 -5.81673e-07
55 1 3.7971 6.44099 6.3971 4.26934e-07
54 1 2.56734 8.65509 6.8108 -9.7877e-07
116 1 9.12681 11.7131 9.50995 6.03682e-07
123 1 1.18837 11.8113 9.56061 1.60625e-09
122 1 3.88142 11.8323 9.60694 -5.36542e-07
117 1 6.52665 11.7084 9.51068 1.93654e-08
ITEM: TIMESTEP
5000
ITEM: NUMBER OF ATOMS
125
ITEM: BOX BOUNDS pp pp mm
0.0000000000000000e+00 1.0500000000000000e+01
0.0000000000000000e+00 1.2000000000000000e+01
-9.8259055729847200e-01 1.3000000000000000e+01
ITEM: ATOMS id type x y z c_charge
27 1 5.05915 5.33469 -0.0743779 -3.21056e-07
28 1 6.45442 3.21252 -0.469434 5.64914e-07
29 1 3.80166 3.19456 -0.446642 -7.23261e-07
30 1 7.68292 5.26354 -0.0363052 5.17394e-07
94 1 10.3878 3.06265 3.69351 -2.94107e-07
32 1 8.98813 4.15135 1.93134 -1.18755e-06
33 1 6.31207 4.22219 1.94874 -2.81661e-07
34 1 9.00617 5.25332 4.15381 2.11916e-07
35 1 10.4011 5.19684 -0.0797407 -1.01817e-06
36 1 1.12849 3.0096 -0.414336 5.48879e-07
37 1 2.38181 5.28209 -0.135267 2.47229e-07
85 1 5.07154 3.00033 3.78346 -2.15391e-07
39 1 3.77714 4.16365 1.80239 8.91036e-07
40 1 1.15492 4.14111 1.7935 7.78802e-07
84 1 1.1427 0.908537 3.28757 -3.66384e-07
43 1 6.3416 5.37365 4.20988 6.85145e-07
44 1 3.73827 5.2506 4.23925 -2.90298e-07
83 1 3.81029 0.930789 3.2951 -8.64867e-07
52 1 1.15948 5.24989 4.19265 -1.61161e-06
70 1 8.97781 3.0249 -0.40029 -4.00779e-07
82 1 2.48654 3.09079 3.79738 -1.17438e-06
72 1 5.2559 1.00123 -0.986273 3.1698e-07
73 1 5.10781 2.04474 1.40811 -2.14178e-07
74 1 7.70005 2.11729 1.50753 -1.1876e-06
75 1 7.71868 3.0722 3.8725 -1.33586e-07
76 1 8.99118 0.940997 3.33246 4.09892e-07
77 1 6.38142 1.0454 3.30964 -4.79764e-07
81 1 2.45801 1.97084 1.4912 -2.6102e-07
80 1 10.345 1.9956 1.48863 1.48014e-06
88 1 3.80013 2.05118 5.75966 -7.40047e-07
96 1 1.15696 2.01819 5.71129 2.24459e-06
78 1 9.05279 2.08996 5.78286 -1.69935e-06
87 1 6.41634 2.09641 5.79616 -1.87001e-07
125 1 10.2874 2.12417 9.95434 -3.8795e-08
91 1 8.94951 3.15508 8.01137 -3.90797e-07
92 1 6.35194 3.0679 8.16977 6.28853e-07
93 1 9.04033 4.39885 10.2494 -2.5331e-07
124 1 5.03726 2.02374 10.2167 -2.73995e-07
99 1 3.84687 3.19124 8.0011 -4.79372e-07
100 1 1.2146 3.19367 8.06346 -1.02691e-06
90 1 7.64524 5.31394 8.35918 3.35526e-07
103 1 6.41401 4.22729 10.4914 -9.25224e-07
104 1 3.84651 4.36843 10.2425 9.43453e-07
106 1 10.3744 5.30767 8.38396 -5.72342e-07
108 1 1.15387 4.50603 10.3181 -5.54278e-07
113 1 5.154 0.912451 7.68162 -2.51511e-07
114 1 7.66745 0.896615 7.68007 7.01593e-07
115 1 7.77036 1.9654 9.99052 -8.93589e-07
98 1 2.46733 5.3561 8.30978 -7.37677e-07
101 1 5.08543 5.38931 8.28386 1.09964e-06
119 1 10.2155 0.954331 7.6562 1.17585e-07
120 1 2.35488 0.931236 7.73584 -6.21075e-07
121 1 2.5373 2.21442 9.98343 -7.79296e-08
97 1 2.4446 4.14641 6.10106 1.38962e-06
86 1 5.14063 4.16882 6.16845 -9.28523e-07
89 1 7.71984 4.22246 6.07516 -1.08028e-06
95 1 10.3597 4.15792 6.13248 2.49797e-07
1 1 8.94089 11.9757 0.682808 6.88082e-07
2 1 6.46984 11.9142 1.10605 -1.49453e-06
3 1 7.68287 9.66698 0.439571 1.26816e-06
4 1 8.99492 7.36522 0.295091 5.63212e-07
5 1 6.34809 7.55572 0.212009 4.21386e-07
6 1 9.07996 8.64663 2.5177 -7.74472e-07
7 1 2.50275 9.60788 0.516655 -8.90735e-07
8 1 3.80067 7.4802 0.276529 1.16458e-07
9 1 1.07329 7.42637 0.408013 1.4833e-07
10 1 5.09718 9.74535 0.56984 -1.68983e-07
11 1 5.17137 10.8254 2.88264 6.71987e-08
12 1 6.41066 8.67016 2.48083 -4.27129e-07
13 1 3.86502 8.53404 2.52448 1.38391e-06
14 1 7.83318 10.7349 2.89749 4.34534e-07
15 1 9.02867 9.66547 4.81554 6.18052e-07
16 1 6.47799 9.77036 4.73044 1.16773e-06
79 1 1.20255 11.9427 0.887762 -7.46033e-07
18 1 10.3756 9.72448 0.422544 6.69052e-07
19 1 10.3873 10.8411 2.71992 7.87972e-07
20 1 1.16399 8.55879 2.52511 -1.56924e-07
21 1 2.60286 10.742 2.75938 1.69201e-07
22 1 3.73976 9.81944 4.69974 -1.6583e-06
23 1 0.964157 9.74583 4.77412 1.18397e-06
71 1 3.79318 11.9318 0.849889 4.18437e-08
53 1 2.39182 7.5212 4.46345 -1.71824e-06
51 1 10.2717 7.54352 4.56331 4.96418e-07
42 1 5.13959 7.63532 4.45845 4.95693e-07
45 1 7.74569 7.48695 4.37686 6.97839e-07
31 1 7.60894 6.52494 2.12046 -9.10436e-07
38 1 2.45516 6.35315 2.17061 5.60023e-07
110 1 7.67924 11.9707 5.20575 6.75333e-07
41 1 4.98665 6.42044 2.20733 5.94306e-07
50 1 10.2738 6.34924 2.32368 -3.61785e-07
112 1 5.15935 11.9981 5.14179 -1.1922e-06
111 1 2.44869 11.9135 5.20208 -2.18514e-07
118 1 10.3536 11.9482 5.19357 1.06142e-06
49 1 9.05534 7.48951 8.57852 -9.73734e-07
58 1 5.09735 9.70968 8.9301 4.88496e-08
59 1 6.37613 7.47278 8.56522 1.11646e-06
60 1 3.83521 7.65934 8.58058 -2.33559e-08
61 1 7.91453 9.67454 8.91506 1.65563e-06
62 1 9.11118 8.82147 10.9581 -5.00614e-07
63 1 6.50283 8.9257 10.9004 7.84266e-07
65 1 10.3488 9.74308 9.00993 -3.33907e-07
66 1 1.26071 7.53599 8.63908 -2.37313e-09
67 1 2.52641 9.67229 8.911 4.09107e-07
68 1 3.81299 8.67628 10.9091 -1.08872e-07
69 1 1.25115 8.92346 10.9593 -5.00859e-08
102 1 5.1664 6.50689 10.6153 8.67855e-07
105 1 7.68774 6.6299 10.5721 -1.4379e-07
107 1 10.35 6.69986 10.6164 6.57671e-07
109 1 2.49268 6.62136 10.5752 -7.80444e-07
47 1 8.99845 6.36998 6.38224 -8.07748e-07
48 1 6.3939 6.31236 6.32257 2.07547e-07
46 1 7.67477 8.49289 6.631 3.09983e-07
57 1 5.00226 8.75462 6.65398 4.65088e-07
17 1 8.99086 10.8538 7.148 1.86453e-07
24 1 6.36707 10.7796 7.11267 2.97743e-07
25 1 3.74735 10.8433 7.03651 -5.08303e-07
26 1 1.19036 10.8775 7.14209 -2.10283e-07
64 1 10.2867 8.72696 6.7503 2.77187e-07
56 1 1.08546 6.36966 6.36948 9.24475e-07
55 1 3.69282 6.46609 6.25702 1.48435e-06
54 1 2.30514 8.7177 6.57698 8.64767e-08
116 1 9.06182 11.8233 9.63004 1.33701e-06
123 1 1.2437 11.857 9.64541 -3.82835e-07
122 1 3.7601 11.8331 9.54474 -1.91533e-07
117 1 6.46176 11.7789 9.53441 -1.29545e-06
ITEM: TIMESTEP
6000
ITEM: NUMBER OF ATOMS
125
ITEM: BOX BOUNDS pp pp mm
0.0000000000000000e+00 1.0500000000000000e+01
0.0000000000000000e+00 1.2000000000000000e+01
-1.0149471248703992e+00 1.3000000000000000e+01
ITEM: ATOMS id type x y z c_charge
27 1 5.05393 5.24322 -0.136424 -1.14511e-07
28 1 6.41236 3.02465 -0.462833 -6.24524e-07
29 1 3.64207 3.00251 -0.582561 -4.99731e-07
30 1 7.67027 5.26684 -0.161303 -6.7331e-07
94 1 10.4484 3.21807 3.82796 2.33453e-06
32 1 9.04916 4.14978 1.87068 3.07237e-07
33 1 6.43798 4.19367 1.74451 4.01263e-07
34 1 9.17756 5.42265 4.18308 -4.665e-07
35 1 10.2261 5.23547 -0.0909241 -8.58629e-07
36 1 1.14844 2.82406 -0.582813 8.78163e-07
37 1 2.46173 5.18924 -0.24656 1.07282e-07
85 1 5.15429 3.12013 3.75335 3.41177e-07
39 1 3.87993 4.20188 1.69795 4.44819e-07
40 1 1.1462 4.19927 1.79991 -2.83717e-07
84 1 1.17924 1.03438 3.29909 -9.08631e-07
43 1 6.57605 5.22012 4.24017 4.6693e-07
44 1 3.87615 5.33607 3.99959 -1.36029e-06
83 1 3.81196 0.895567 3.40556 1.82354e-06
52 1 1.34984 5.38008 4.07777 1.81271e-06
70 1 8.92402 3.0077 -0.454365 1.05124e-08
82 1 2.6205 3.09314 3.74948 -1.13615e-06
72 1 5.03295 0.876552 -1.01046 1.56603e-06
73 1 5.06565 1.98119 1.57309 4.94778e-07
74 1 7.73233 1.96309 1.55457 7.41876e-07
75 1 7.83884 3.08018 3.75284 -2.76754e-06
76 1 9.15265 1.00061 3.31517 2.07084e-06
77 1 6.39254 0.990364 3.44208 -1.25498e-07
81 1 2.43591 2.01019 1.31564 1.73113e-06
80 1 10.463 2.15773 1.48915 -4.03239e-06
88 1 3.79182 2.08886 5.61866 1.33871e-06
96 1 1.17927 1.90984 5.64174 1.35515e-06
78 1 8.98521 2.0791 5.79049 2.1449e-07
87 1 6.37123 2.0146 5.71051 -8.19173e-07
1 1 9.07231 0.0113366 0.992655 8.31034e-07
97 1 2.51531 4.21374 5.98316 -1.03485e-06
125 1 10.3904 2.0926 9.96212 1.56394e-06
91 1 9.08532 3.18065 8.07628 3.81477e-07
92 1 6.42653 3.23818 7.90365 8.3256e-07
93 1 9.06161 4.31524 10.4378 -9.98847e-08
124 1 5.1695 2.18907 9.79 -7.48532e-07
99 1 3.74106 3.17064 7.99926 -1.9496e-06
100 1 1.16375 3.06936 7.8508 2.63733e-06
90 1 7.66133 5.48014 8.42147 1.98113e-07
103 1 6.36641 4.41325 10.2485 -1.26721e-06
104 1 3.72598 4.28209 10.4887 1.71296e-06
106 1 10.3087 5.39154 8.35107 -1.42705e-06
108 1 1.16797 4.31909 10.1573 -3.86516e-07
113 1 5.07472 0.933978 7.60529 1.56936e-06
114 1 7.71184 1.0062 7.67976 1.5832e-07
115 1 7.72409 2.17947 10.0364 -8.73222e-07
98 1 2.43984 5.20933 8.28285 3.86366e-07
101 1 5.06996 5.34855 8.31512 -1.98666e-06
119 1 10.3127 0.929382 7.53776 -3.22334e-06
120 1 2.42848 0.933649 7.60701 1.87208e-08
121 1 2.38113 1.94753 9.98719 -1.58945e-06
95 1 10.418 4.23243 6.06383 -1.45856e-06
86 1 5.08778 4.24675 6.04023 6.25012e-07
89 1 7.75978 4.25707 6.11064 -5.94895e-07
2 1 6.36231 11.8385 0.802603 1.39251e-07
118 1 10.3046 11.8265 5.21202 -2.4383e-06
3 1 7.71009 9.80816 0.721596 1.41105e-06
4 1 8.98822 7.51448 0.16052 -5.72524e-08